<?xml version="1.0"?>
<VTKFile type="PolyData" version="0.1" byte_order="LittleEndian">
  <PolyData>
    <Piece NumberOfPoints="50000" NumberOfVerts="50000" NumberOfLines="0" NumberOfStrips="0" NumberOfPolys="0">
      <Points>
        <DataArray type="Float32" NumberOfComponents="3" format="ascii">
0.118449 0.00315677 0
-0.111112 0.00144124 0
0.11446 -0.000155701 0
0.119636 4.97042e-06 0
-0.0963741 0.00245122 0
-0.0807922 0.00124797 0
0.0393846 -0.00692458 0
-0.0999905 0.000577228 0
0.0349293 -0.00527974 0
-0.00713832 0.00321863 0
0.0896422 -0.00308169 0
0.114387 0.00294239 0
-0.0646817 0.00268186 0
-0.0453948 -0.00650324 0
-0.121323 0.00126408 0
0.0923267 0.00420212 0
-0.016325 -6.26577e-06 0
0.11854 0.00110694 0
0.0452024 0.00103607 0
-0.11116 0.00169212 0
-0.11664 0.00221424 0
0.102555 0.00259349 0
-0.114919 0.00135241 0
0.115816 0.000627018 0
0.0736551 -0.00310993 0
0.0858687 0.00440569 0
-0.113634 -0.00160275 0
0.118917 -0.000365418 0
-0.0809509 0.00749193 0
-0.120141 0.00326147 0
-0.0900026 0.00415993 0
-0.0833055 -0.00421392 0
0.11786 0.000873461 0
0.118401 0.000312854 0
0.0229328 0.00212265 0
0.120491 0.000147133 0
0.0368741 0.00105682 0
-0.119302 0.00133197 0
-0.111068 -0.000928958 0
-0.123609 -0.000129621 0
0.08654 0.00447549 0
0.0916401 0.00242616 0
-0.113944 -0.000105054 0
0.117117 0.000845691 0
0.121036 0.00101356 0
-0.117174 0.00316387 0
0.115479 0.00210529 0
0.0591035 -0.00375918 0
0.113841 0.000730758 0
0.116586 0.000686889 0
0.048755 0.00691124 0
-0.115029 0.000286898 0
-0.079442 0.00339251 0
0.115143 0.0015044 0
-0.113124 0.00132874 0
-0.120467 0.00137597 0
0.118518 0.000268032 0
0.0478629 0.00402916 0
0.0883754 0.00284961 0
0.122294 -0.000795076 0
0.0996077 0.00203287 0
0.119839 0.00143894 0
0.0266029 -0.00873741 0
0.122158 0.000120402 0
-0.0383316 0.00558111 0
-0.112862 0.00103658 0
0.116146 0.000373262 0
0.119125 0.000445368 0
0.123127 0.00182644 0
0.0854068 0.000920584 0
-0.113992 0.00159125 0
0.116151 0.00176058 0
0.0639657 0.00104259 0
0.0647264 0.00264847 0
0.0553755 0.0021467 0
-0.115921 -0.000122778 0
0.100937 0.00429256 0
-0.109756 0.00191039 0
0.089231 0.00265126 0
-0.12018 0.00111718 0
-0.0596075 -0.00914341 0
-0.11785 0.00192379 0
0.109894 0.00217058 0
-0.114678 0.000817634 0
0.122144 -0.000729091 0
-0.114735 0.00161713 0
0.122287 -0.000705635 0
-0.0510578 -0.00183615 0
-0.049282 0.0073343 0
-0.116039 -0.00147444 0
0.115197 0.00263464 0
-0.113457 0.000444041 0
0.115409 0.000127171 0
-0.0774596 0.00634741 0
-0.0110296 -0.00564733 0
-0.101739 0.00218769 0
0.115557 0.0032394 0
-0.11677 0.00159508 0
-0.123252 0.00278004 0
-0.121972 0.000349139 0
-0.101965 -0.00155177 0
-0.11392 -0.0010309 0
0.122955 0.000481413 0
-0.0484526 -0.00532271 0
0.123823 0.000517035 0
0.101013 0.00434345 0
0.0752184 0.00266782 0
0.00637737 0.00291173 0
0.113613 0.00197981 0
-0.115485 -0.000736479 0
-0.0862768 0.00636342 0
-0.116958 0.00156548 0
-0.0994087 0.00371881 0
78.2837 113.241 0
0.0776434 0.00281115 0
-0.115172 0.00168795 0
-0.119492 0.00192706 0
1.99569 2.72984 0
-0.116248 0.00111049 0
-0.00515293 -0.00180929 0
0.118964 0.000271043 0
-0.112216 -0.000493067 0
0.0804185 -0.00032208 0
-0.106813 0.00280709 0
0.116621 0.000474143 0
0.113432 0.000402364 0
0.0373272 0.00756621 0
0.119548 0.00195704 0
-0.103325 -0.0013515 0
0.090352 0.000402762 0
0.120525 -0.000238649 0
0.119475 0.00055721 0
-0.12259 0.000861474 0
-0.102143 0.00182404 0
0.12254 0.00016522 0
0.116507 0.00038827 0
0.11215 -0.000141918 0
-0.0178157 0.00156551 0
0.0935313 -0.00343357 0
0.0911044 -0.00278247 0
0.0934933 -0.00350223 0
0.110898 0.00346433 0
0.12036 -0.000297501 0
-0.0269458 -0.00337725 0
-0.118985 0.00258748 0
0.0795107 -0.00583421 0
-0.0755583 0.00645405 0
-0.117305 0.00121619 0
-0.0830537 -0.00508323 0
-0.117717 0.00170514 0
0.0905972 0.00281586 0
0.115752 0.00135624 0
-0.0350994 -0.00275876 0
0.0939809 -0.00232076 0
0.0934119 0.00310005 0
0.114902 0.00183957 0
0.0784717 -0.00214308 0
-0.11545 0.00143794 0
-0.0492276 -0.00107915 0
0.12005 0.000579571 0
0.080219 0.000191244 0
-0.104836 -0.000255258 0
-0.113427 0.00136078 0
-0.117977 0.00137669 0
-0.0298962 0.00354579 0
0.0923127 -0.00116692 0
0.10432 -0.000954574 0
0.105545 0.00173854 0
0.0888929 0.00302241 0
-0.0478934 0.000817944 0
0.123544 -0.000739303 0
-0.113027 0.00153385 0
-0.0262399 -0.00105751 0
0.119631 0.00197099 0
-0.0209083 -0.000344893 0
-0.0907071 0.00520307 0
-0.113339 0.00135096 0
-0.0682338 -0.00255222 0
-0.11501 -6.64964e-05 0
-0.115569 -0.00131746 0
0.11455 0.000654913 0
-0.116813 0.00248471 0
-0.115009 0.002195 0
0.118389 0.00225633 0
0.115303 0.000410697 0
0.0888315 -0.00435247 0
0.123808 -0.000312917 0
0.122345 0.000805394 0
0.118837 -0.000392302 0
0.0135757 0.00912817 0
0.12082 -0.000383723 0
0.0976565 -0.00198705 0
-0.0770776 -0.00466355 0
0.108606 0.00253596 0
-0.106544 0.00248748 0
0.114589 0.00119475 0
-0.0947243 0.00404918 0
-0.101197 0.00217723 0
-0.113648 0.00175218 0
0.11614 0.00214263 0
-0.0754004 0.00613803 0
0.121957 0.00146436 0
0.105847 -0.000924637 0
-0.0232888 -0.00140569 0
0.123709 -0.00076904 0
-0.112334 -0.00174281 0
0.0161848 0.0142406 0
0.0492986 -0.00127433 0
-0.101168 0.00374989 0
-0.0709271 -0.00230782 0
0.113442 0.000852446 0
-0.0491041 -0.00542234 0
0.106697 -0.000399723 0
-0.0977519 0.00384216 0
-0.0665427 -0.00393996 0
-0.117908 0.0023824 0
-0.116331 0.00285666 0
0.117581 0.00059944 0
-0.119258 0.00021582 0
-0.0134289 0.00672188 0
-0.091516 0.00404834 0
-0.119197 0.00167204 0
-0.110285 -0.00122645 0
0.122685 -0.000179598 0
0.0433729 0.00778628 0
-0.113428 0.00150007 0
0.123137 0.00100217 0
0.11845 0.000440201 0
-0.100418 0.00347523 0
-0.119021 0.000421243 0
-0.117158 -0.000531241 0
0.115374 0.00193804 0
0.0597899 0.00748921 0
-0.0174382 0.00498937 0
-0.121063 0.00190295 0
-0.103953 0.00234572 0
0.0901882 -0.00443005 0
-0.0912506 -0.000677859 0
-0.115555 0.00159077 0
0.0718002 -0.000192471 0
0.120923 0.000660256 0
-0.106366 -0.00140339 0
-0.117046 0.00159174 0
-0.0669112 -0.00343196 0
0.059228 0.00264315 0
0.10549 0.00187859 0
-0.110135 0.00267766 0
0.118521 0.000439152 0
0.121672 0.00144339 0
0.0698043 0.00430116 0
0.0729217 0.00192896 0
-0.109818 0.00209928 0
0.114294 -0.000190415 0
-0.0513989 -0.00208847 0
-0.106114 0.00299906 0
0.114598 0.000590735 0
-0.102842 0.0029411 0
0.101045 0.00327207 0
0.0439353 0.00742817 0
0.0636937 0.000762985 0
0.121717 0.00094302 0
-0.109779 0.00204887 0
0.0226269 -0.00173986 0
0.0116254 -0.00339355 0
-0.0780524 0.0016276 0
-0.115638 0.000909764 0
-0.113675 0.00146811 0
-0.113139 0.000183243 0
0.117479 0.000380917 0
0.116397 0.000435553 0
0.119949 0.000395214 0
-0.116755 -0.000251313 0
0.0769924 0.0015527 0
0.00661661 0.00410966 0
-0.121707 0.0020764 0
-0.118257 0.00128081 0
0.114073 0.000561364 0
-0.113038 0.00149368 0
0.112878 0.00255927 0
-0.11487 0.000173396 0
-0.111036 0.000572577 0
-0.050701 -0.00599455 0
-0.116614 0.00132515 0
0.111263 2.76916e-05 0
-0.0986771 0.00375141 0
-0.111247 -0.000314715 0
-0.0436348 0.00640523 0
-0.116375 0.00155309 0
-0.118029 0.00171871 0
0.100416 -0.000238243 0
-0.0409514 0.00261005 0
0.117287 0.00040254 0
0.119828 -0.00016988 0
0.076207 0.00469228 0
0.121453 0.00163678 0
0.115754 0.0025039 0
0.120938 0.00189905 0
-0.0791354 0.00739079 0
-0.10921 0.00120468 0
-0.121193 0.000888893 0
0.124145 0.000938379 0
-0.0157924 0.00278743 0
0.116833 0.000161622 0
0.114208 0.00164785 0
0.120241 0.000455231 0
0.0209804 0.00418192 0
-0.0604706 0.00787617 0
0.101097 0.00222371 0
-0.0133954 0.000754945 0
-0.056524 0.00335034 0
-0.0950419 0.00398713 0
0.117447 0.00264427 0
-0.0839935 0.00485536 0
0.108316 -0.000900068 0
0.0893779 -0.000719889 0
-0.121022 0.00243652 0
0.0950228 -0.00361103 0
0.123015 -0.000835375 0
0.10995 -0.000213802 0
0.117796 0.00285501 0
-0.118052 0.00217355 0
-0.0252611 0.00500267 0
0.119752 0.00127157 0
0.119365 0.000400226 0
0.0549639 0.00782031 0
-0.112797 0.00046795 0
-0.110326 0.00208935 0
0.122794 0.000818741 0
-0.112599 -0.000254086 0
0.118766 0.00141569 0
0.119451 -3.21786e-05 0
0.0570776 -0.00611713 0
0.114156 0.00168801 0
-0.115881 0.00157864 0
-0.0987769 0.000453147 0
-0.0661257 -0.000100414 0
0.00995236 -0.00157841 0
0.0145982 -0.00774544 0
-0.106243 0.0016031 0
0.0531025 -0.00686021 0
-0.0116307 0.0122394 0
-0.1198 0.00237966 0
-0.0850545 0.00459319 0
-0.116838 0.00190962 0
-0.0477182 -0.00328822 0
0.119563 0.00269955 0
-0.0825075 0.00507912 0
-0.118471 0.000585273 0
-15.6555 64.7582 0
0.119189 -0.00084051 0
0.118716 0.000355949 0
-0.0958804 0.00474377 0
0.115671 0.00155472 0
0.109571 0.000377729 0
-146.169 -261.4 0
0.0365925 0.00488922 0
-0.117188 0.00169241 0
-0.096903 -8.14361e-05 0
0.117712 0.00170407 0
1.07529 -2.21298 0
0.11133 0.00211668 0
-0.114794 -0.00116156 0
-0.0726847 0.000715027 0
-0.116583 -0.000359359 0
-0.118721 0.00257312 0
0.116921 0.000379408 0
-0.120202 0.000211084 0
-0.104103 0.00329889 0
0.0915221 0.00430893 0
-0.113336 0.000642223 0
-0.094115 0.00474895 0
-0.10467 0.00302099 0
0.11799 0.00189876 0
0.106455 -0.00135982 0
-0.0692375 0.00615977 0
0.121546 7.89103e-05 0
-0.117321 -0.00104396 0
-0.108515 -0.000416284 0
-0.118522 0.000981347 0
0.0107827 -0.00824382 0
-0.114183 -0.000956498 0
0.116819 0.0019356 0
-0.116016 0.00170102 0
-0.115663 0.00119369 0
-0.027827 0.00502616 0
0.076189 0.00463471 0
-0.0369548 0.0111569 0
0.0253908 0.00662268 0
-0.117278 0.00175815 0
-0.0205561 0.00170526 0
-0.117596 0.000329366 0
-0.118094 0.00221845 0
0.114002 -0.00100335 0
0.100059 0.00340245 0
-0.110169 0.00250256 0
0.106223 0.00212398 0
0.10509 0.00106923 0
-0.112568 0.00152125 0
-0.0616047 -0.00140482 0
0.0830023 -0.00432602 0
-0.112936 0.000855733 0
0.100638 -0.00191419 0
0.0464782 -0.000726399 0
-0.115641 0.000342994 0
0.109378 0.000500371 0
0.11504 4.14301e-06 0
0.117133 -0.000675195 0
0.119227 0.000238174 0
0.121113 0.000700425 0
0.115163 0.00272055 0
-0.11668 0.00143287 0
0.0845548 0.00347613 0
-0.0959182 -0.000825966 0
0.0554436 0.00838009 0
-0.109796 0.00142494 0
-0.038613 -0.000961783 0
-0.090646 0.00406215 0
[...]
      <PointData Scalars="T">
        <DataArray type="Float32" Name="T" format="ascii" NumberOfComponents="1">
310.317
335.386
312.359
312.359
349.928
347.231
312.359
355.199
312.359
349.928
312.359
310.317
349.928
350.213
348.038
310.317
350.213
300.609
300.523
335.325
349.928
310.317
340.575
300.623
312.359
310.317
350.213
312.359
349.928
349.928
349.928
350.213
300.456
300.808
310.317
301.539
300.619
342.008
350.213
350.213
310.317
310.317
350.213
300.471
300.449
349.928
310.317
312.359
300.557
300.622
310.317
360.194
349.928
300.932
343.236
340.17
300.971
310.317
310.317
312.359
310.317
300.771
312.359
301.605
349.928
355.493
300.656
300.595
302.415
300.448
331.182
302.291
300.591
310.317
310.317
350.213
310.317
349.928
310.317
351.036
350.213
349.928
310.317
348.249
312.359
331.467
312.359
350.213
349.928
350.213
310.317
356.168
301.605
349.928
350.213
349.928
310.317
331.182
349.928
360.983
350.213
350.213
300.585
350.213
300.585
310.317
310.317
310.317
310.317
350.213
349.928
331.545
349.928
310.317
310.317
334.856
349.928
310.317
351.036
350.213
300.929
350.213
312.359
349.928
300.589
300.614
310.317
310.317
350.213
300.614
312.359
300.583
350.741
340.436
301.454
300.637
312.359
331.545
312.359
312.359
312.359
310.317
312.359
350.213
349.928
312.359
349.928
347.582
350.213
335.807
310.317
300.672
350.213
312.359
310.317
302.426
312.359
335.996
350.213
300.587
301.297
350.213
340.33
340.17
349.928
312.359
312.359
302.256
310.317
348.249
312.359
332.293
350.213
310.317
350.213
349.928
340.575
350.213
350.213
350.213
300.637
349.928
349.928
310.317
300.607
312.359
312.359
300.486
312.359
310.317
312.359
312.359
350.213
310.317
349.928
300.587
349.928
349.928
338.049
310.317
349.928
300.827
312.359
350.213
312.359
350.213
310.317
312.359
349.928
350.213
300.466
350.213
312.359
349.928
350.213
349.928
349.928
300.597
361.262
349.928
349.928
334.382
350.213
312.359
310.317
332.822
300.444
300.595
349.928
357.408
350.213
310.317
310.317
349.928
343.735
349.928
312.359
350.213
331.182
312.359
300.635
350.213
331.182
350.213
310.317
302.451
349.928
300.598
300.793
310.317
310.317
349.928
312.359
350.213
349.928
300.597
349.928
310.317
310.317
300.515
300.447
349.928
312.359
312.359
331.74
351.945
334.22
362.289
300.637
300.598
300.623
350.213
301.112
310.317
349.928
347.467
300.583
333.034
310.317
362.81
355.199
350.213
343.236
302.712
349.928
350.213
349.928
331.748
336.297
312.359
349.928
300.614
312.359
310.317
301.643
310.317
302.435
349.928
347.955
353.242
300.449
349.928
301.454
301.734
300.595
310.317
349.928
310.317
347.158
349.928
349.928
310.317
349.928
312.359
312.359
349.928
312.359
312.359
312.359
310.317
349.928
349.928
300.624
300.614
310.317
354.781
349.928
300.482
350.213
300.748
312.359
312.359
302.077
331.373
355.197
350.213
312.359
312.359
331.222
312.359
349.928
349.928
349.928
343.735
350.213
310.317
349.928
355.546
349.928
312.359
300.703
349.928
301.112
300.656
350.213
310.317
335.325
350.213
302.135
312.359
310.317
350.213
350.043
350.213
349.928
300.656
361.262
349.928
310.317
353.805
349.928
349.928
302.435
312.359
349.928
301.99
350.213
350.213
355.446
312.359
350.213
310.317
335.807
348.664
349.928
310.317
349.928
310.317
338.049
335.807
361.828
349.928
312.359
310.317
349.928
310.317
300.632
332.477
350.213
312.359
352.24
312.359
312.359
360.983
300.583
312.359
312.359
301.091
300.601
310.317
335.996
310.317
350.213
310.317
337.061
350.213
349.928
312.359
338.199
300.656
349.928
310.317
331.467
300.613
300.583
310.317
312.359
331.312
340.33
300.971
349.928
310.317
340.17
302.441
356.795
350.213
349.928
349.928
301.401
300.607
349.928
312.359
347.787
358.297
350.213
349.928
350.213
310.317
312.359
365.895
300.708
350.213
361.979
312.359
312.359
367.834
340.787
347.334
350.213
300.452
350.213
300.503
349.928
350.213
300.583
310.317
350.213
350.213
349.928
349.928
310.317
347.158
312.359
300.637
302.391
349.928
349.928
337.838
300.614
310.317
351.131
367.834
350.213
340.33
300.613
310.317
300.595
300.44
349.928
310.317
310.317
300.457
333.709
310.317
312.359
356.168
301.345
333.328
341.167
349.928
350.213
358.297
350.213
350.213
350.213
312.359
312.359
312.359
310.317
312.359
310.317
310.317
350.213
310.317
338.318
312.359
310.317
349.928
310.317
349.928
351.036
349.928
351.944
310.317
312.359
310.317
300.756
301.252
312.359
349.928
310.317
302.44
348.998
310.317
348.046
331.467
350.213
312.359
301.052
349.928
349.928
350.213
360.413
350.213
310.317
310.317
300.624
310.317
350.213
341.536
310.317
342.482
300.461
310.317
350.213
331.182
312.359
349.928
301.345
310.317
350.213
310.317
350.213
300.868
356.795
349.928
300.634
312.359
350.213
369.302
350.741
335.386
349.928
310.317
312.359
300.808
300.447
310.317
350.213
350.812
355.043
350.213
332.097
302.03
312.359
349.928
310.317
362.02
300.449
310.317
300.515
340.938
310.317
350.213
356.047
310.317
312.359
350.213
310.317
331.74
312.359
312.359
310.317
300.586
350.213
350.213
349.928
351.945
310.317
350.213
312.359
360.194
350.213
310.317
300.583
350.213
366.885
349.928
349.928
301.091
312.359
349.928
354.624
350.213
310.317
312.359
332.293
349.928
302.12
312.359
310.317
310.317
340.575
350.213
350.213
350.213
350.213
302.44
349.928
310.317
300.812
350.213
349.928
300.583
312.359
350.213
338.199
312.359
350.213
350.213
333.709
301.408
350.213
345.224
310.317
349.928
339.295
312.359
310.317
332.614
310.317
312.359
347.362
310.317
300.595
336.743
349.928
312.359
300.583
300.583
310.317
302.305
355.228
354.781
349.928
349.928
310.317
332.776
350.213
300.453
301.938
349.928
344.601
349.928
300.656
310.317
310.317
310.317
349.928
300.589
312.359
349.829
339.259
300.827
300.676
310.317
310.317
300.708
349.928
310.317
301.025
312.359
331.373
310.317
349.928
312.359
301.345
312.359
310.317
312.359
349.928
300.618
351.723
302.347
333.034
349.928
349.928
312.359
350.213
310.317
331.373
300.583
310.317
350.213
312.359
349.733
361.224
355.512
345.224
349.928
349.928
300.607
312.359
312.359
300.583
312.359
350.812
310.317
332.004
355.139
302.12
312.359
334.859
300.452
340.436
310.317
349.928
349.928
349.928
350.213
362.81
300.456
349.928
310.317
349.928
350.213
349.928
363.319
350.213
300.597
310.317
312.359
349.928
350.213
349.928
347.362
350.213
349.928
350.213
310.317
332.477
350.213
312.359
302.885
300.595
346.397
349.928
350.213
302.441
362.02
300.609
337.838
350.213
361.938
310.317
300.583
310.317
300.586
301.091
349.928
349.928
301.768
349.928
310.317
348.154
302.451
340.33
350.213
301.025
331.467
300.594
349.928
342.123
312.359
300.619
362.289
310.317
312.359
300.605
310.317
349.928
350.213
355.228
310.317
349.928
300.605
310.317
301.99
312.359
356.469
339.692
300.586
349.928
349.928
312.359
300.583
301.643
300.756
349.928
350.213
310.317
349.928
300.672
302.231
331.748
349.928
300.875
352.24
312.359
300.598
332.097
331.222
312.359
300.456
349.928
350.213
350.213
310.317
300.591
348.998
349.928
340.064
350.043
350.213
301.454
349.928
300.899
347.707
301.213
300.585
347.334
300.835
345.224
302.45
300.676
349.928
350.213
300.875
312.359
310.317
310.317
310.317
310.317
331.467
310.317
312.359
355.043
312.359
310.317
342.482
300.614
312.359
310.317
349.928
349.928
350.213
312.359
350.213
300.703
350.213
340.938
349.928
310.317
350.213
354.657
350.213
312.359
356.795
340.787
312.359
300.737
350.213
350.213
312.359
349.928
312.359
312.359
360.413
310.317
350.213
300.632
312.359
310.317
312.359
310.317
310.317
349.928
300.672
312.359
300.782
349.928
300.637
350.213
349.928
350.213
312.359
310.317
335.996
350.213
349.928
312.359
341.536
349.928
300.635
300.598
310.317
302.077
332.776
344.601
312.359
349.928
310.317
349.928
350.213
300.585
350.213
312.359
349.928
350.213
349.928
349.928
349.928
348.998
350.213
349.928
349.928
310.317
351.723
312.359
312.359
312.359
312.359
310.317
349.928
300.587
332.776
310.317
331.373
302.231
300.632
370.661
310.317
349.928
301.768
310.317
312.359
360.699
300.782
349.928
300.45
350.213
350.213
310.317
350.213
335.807
349.928
350.213
312.359
310.317
310.317
310.317
350.213
312.359
359.567
312.359
300.503
310.317
310.317
300.932
312.359
300.703
350.213
310.317
301.067
363.319
349.928
312.359
339.692
300.444
349.928
350.213
333.968
347.158
350.213
332.477
300.759
350.213
310.317
347.467
312.359
349.928
310.317
349.928
349.928
302.184
310.317
349.928
312.359
310.317
300.622
300.466
350.213
349.928
354.624
355.582
312.359
349.928
300.541
349.928
349.928
301.641
301.696
343.137
310.317
312.359
300.622
312.359
335.325
300.637
310.317
349.928
349.928
349.928
350.213
349.928
312.359
331.748
312.359
350.213
300.603
312.359
310.317
332.004
350.213
350.213
349.928
312.359
310.317
350.213
301.578
300.632
350.213
350.213
301.408
334.856
300.605
312.359
310.317
350.213
349.928
349.928
342.482
310.317
355.493
301.468
347.362
349.928
300.598
310.317
310.317
312.359
302.03
355.199
351.519
350.213
333.034
300.595
300.771
310.317
310.317
310.317
310.317
350.213
338.848
349.928
349.928
355.197
332.477
333.709
300.526
312.359
312.359
300.589
301.052
333.034
312.359
338.199
300.461
365.609
349.928
310.317
342.008
353.043
300.637
355.446
312.359
312.359
312.359
301.345
310.317
302.275
312.359
310.317
365.093
300.523
347.582
310.317
310.317
300.622
360.699
312.359
362.289
310.317
310.317
310.317
310.317
349.928
312.359
349.928
310.317
300.635
312.359
353.845
353.845
350.741
312.359
312.359
350.213
310.317
340.064
300.812
300.676
350.213
349.928
354.819
312.359
310.317
338.199
300.623
349.928
300.812
341.167
331.545
353.99
349.928
312.359
312.359
364.41
349.928
349.928
349.928
312.359
350.213
310.317
349.928
310.317
300.897
349.928
337.061
310.317
349.928
300.585
312.359
312.359
349.928
300.471
312.359
350.213
349.928
312.359
341.536
300.598
349.928
331.222
300.602
350.213
350.213
300.614
300.63
302.184
302.375
310.317
361.779
300.687
310.317
349.928
349.928
312.359
333.328
310.317
300.457
348.455
335.996
310.317
355.387
348.793
300.632
312.359
355.512
348.038
300.899
338.484
351.448
365.364
360.177
349.928
312.359
312.359
349.928
336.743
312.359
350.213
312.359
310.317
310.317
349.928
349.928
312.359
348.793
310.317
340.134
310.317
312.359
347.216
301.052
301.408
350.213
332.822
350.213
350.213
331.748
349.928
336.743
342.123
310.317
300.597
312.359
340.134
312.359
349.928
334.859
300.587
332.293
331.182
302.102
334.22
362.289
312.359
350.213
365.895
310.317
338.049
310.317
300.653
301.091
312.359
349.928
300.897
300.607
333.467
331.222
310.317
349.928
349.928
300.503
300.808
300.583
350.213
300.623
349.928
300.586
312.359
352.078
332.477
333.034
302.248
300.597
349.928
349.928
340.787
350.213
300.653
350.213
312.359
350.213
350.213
300.635
310.317
312.359
350.213
310.317
312.359
310.317
348.455
300.835
353.99
354.624
349.928
335.996
351.131
366.371
350.213
310.317
301.233
350.213
341.536
349.928
312.359
349.928
349.928
331.312
350.213
350.213
312.359
312.359
302.256
331.545
310.317
310.317
300.607
350.213
312.359
300.596
310.317
300.456
310.317
349.928
350.741
354.819
349.928
346.397
300.676
350.213
350.213
310.317
341.837
350.213
349.928
347.629
340.938
331.222
355.414
312.359
350.213
366.371
349.928
350.213
335.325
312.359
350.213
349.928
312.359
301.696
312.359
350.213
350.213
349.928
310.317
332.614
360.699
300.596
349.928
331.222
349.928
310.317
349.928
310.317
310.317
312.359
365.471
312.359
300.594
350.213
355.582
312.359
310.317
350.213
349.928
349.928
301.539
349.928
360.177
349.928
310.317
310.317
312.359
310.317
350.213
349.928
332.477
312.359
310.317
349.928
310.317
310.317
354.624
350.213
365.895
310.317
310.317
310.317
340.33
310.317
358.136
310.317
349.928
336.297
347.955
300.989
300.583
312.359
302.885
361.979
312.359
312.359
348.046
334.859
310.317
302.441
300.611
349.928
312.359
332.293
301.213
302.271
312.359
300.619
355.228
333.467
355.546
310.317
312.359
312.359
300.583
349.928
310.317
331.467
300.672
300.63
310.317
350.213
300.541
334.859
310.317
310.317
312.359
355.238
312.359
312.359
312.359
301.408
302.319
351.519
310.317
312.359
349.928
350.213
355.574
347.158
349.928
349.928
347.158
349.928
301.86
300.602
350.213
310.317
349.928
348.038
340.938
312.359
350.213
350.213
300.853
312.359
310.317
310.317
310.317
348.664
300.793
310.317
312.359
310.317
334.382
300.476
351.036
350.213
350.213
312.359
350.213
349.928
349.928
349.928
349.928
349.928
352.24
349.928
300.759
301.643
301.345
337.061
312.359
340.064
301.345
310.317
342.123
300.619
300.622
310.317
302.415
312.359
348.3
312.359
300.45
349.928
310.317
347.231
310.317
349.928
312.359
300.597
349.928
349.928
350.213
349.928
350.213
349.928
312.359
312.359
312.359
350.213
310.317
349.928
300.598
361.979
310.317
333.034
349.928
350.213
333.467
300.63
312.359
365.364
312.359
302.275
350.213
349.928
300.635
310.317
339.259
302.347
302.44
312.359
300.583
312.359
350.213
349.928
350.213
350.213
310.317
312.359
310.317
300.609
301.768
349.928
354.788
355.199
301.147
300.448
300.589
312.359
342.482
312.359
310.317
301.643
310.317
300.614
310.317
349.928
339.259
349.928
310.317
337.061
349.928
300.586
300.449
300.63
300.438
349.928
310.317
339.259
310.317
310.317
349.928
312.359
350.213
350.213
350.213
300.595
350.213
350.213
347.707
350.213
356.882
331.182
350.213
363.719
348.455
312.359
349.928
349.928
310.317
310.317
312.359
300.614
310.317
335.996
349.928
310.317
350.213
350.213
310.317
340.938
350.213
300.624
310.317
300.756
349.928
336.297
312.359
349.928
349.928
302.549
358.898
300.591
300.589
312.359
300.607
349.928
338.848
349.928
312.359
337.061
349.928
349.928
349.928
350.213
349.928
310.317
350.213
349.928
334.859
310.317
349.928
300.929
349.928
348.249
310.317
332.614
350.213
300.782
300.598
360.177
355.043
353.043
300.614
348.249
333.034
350.158
350.213
349.928
350.213
350.213
302.448
302.885
350.213
349.928
312.359
301.345
312.359
350.213
312.359
312.359
302.135
302.256
349.928
350.213
349.928
337.061
300.626
344.601
310.317
340.938
350.213
350.213
312.359
300.438
350.213
349.928
300.656
348.455
302.441
312.359
310.317
312.359
312.359
310.317
343.236
350.213
361.706
349.928
312.359
300.587
365.932
300.629
351.131
332.776
349.928
350.213
349.928
300.827
301.052
335.386
350.213
300.687
310.317
333.968
312.359
335.807
300.585
312.359
300.595
349.928
310.317
312.359
301.091
310.317
361.828
300.438
350.213
350.213
301.297
300.583
361.938
347.467
310.317
301.99
312.359
350.213
350.213
332.614
300.793
300.989
350.213
310.317
302.885
353.845
312.359
310.317
349.928
350.213
355.512
342.123
349.928
349.744
349.928
349.928
300.771
350.213
300.443
350.213
364.41
310.317
347.955
349.928
341.167
350.213
312.359
349.928
350.213
300.698
349.928
351.63
331.545
310.317
300.595
301.295
300.971
350.213
350.213
333.034
356.168
343.236
349.928
350.213
332.822
340.938
312.359
310.317
310.317
300.591
300.456
350.213
354.729
310.317
310.317
366.077
350.213
334.859
312.359
347.955
349.928
349.928
302.248
341.167
312.359
310.317
300.456
312.359
331.312
310.317
349.928
349.928
350.213
310.317
349.928
310.317
300.607
300.627
300.597
349.928
350.213
300.526
300.614
300.609
310.317
310.317
300.676
350.213
300.808
312.359
340.134
355.387
331.748
312.359
300.583
312.359
340.938
348.664
349.928
310.317
337.304
310.317
348.998
300.599
312.359
312.359
300.589
349.928
302.434
350.213
300.591
300.592
310.317
349.928
350.213
350.213
338.049
365.932
350.213
300.624
340.436
354.729
312.359
312.359
300.687
331.182
349.928
350.213
350.213
310.317
349.928
355.197
350.213
301.233
349.928
355.953
300.623
332.614
310.317
350.213
301.345
340.33
350.213
310.317
349.928
312.359
360.177
338.848
312.359
310.317
350.213
333.034
349.928
300.637
349.928
350.213
300.607
355.199
302.291
310.317
354.819
310.317
301.696
312.359
312.359
300.591
361.184
312.359
310.317
350.741
310.317
349.928
350.213
350.213
349.928
350.213
301.052
361.184
310.317
310.317
310.317
312.359
310.317
302.12
312.359
310.317
350.213
300.748
310.317
350.213
312.359
312.359
300.897
300.448
350.213
301.213
300.731
350.213
310.317
350.213
350.213
312.359
331.312
349.928
301.018
349.928
300.708
300.589
310.317
300.595
301.454
312.359
312.359
300.587
300.452
332.776
350.213
354.788
301.025
300.541
349.928
312.359
300.868
355.139
312.359
310.317
312.359
300.808
312.359
333.709
302.44
300.676
349.928
312.359
350.213
310.317
300.595
302.256
349.928
350.213
310.317
334.382
349.928
312.359
301.213
312.359
349.928
310.317
300.591
352.078
334.859
312.359
312.359
310.317
350.213
350.213
350.213
300.614
310.317
312.359
355.238
349.928
312.359
300.526
310.317
310.317
312.359
349.928
310.317
350.213
310.317
349.928
349.928
300.708
310.317
349.928
347.158
310.317
350.213
351.776
351.246
349.829
349.928
334.22
350.213
312.359
312.359
356.469
300.793
355.228
310.317
312.359
350.213
300.602
312.359
349.928
312.359
351.945
347.787
349.928
332.097
310.317
310.317
312.359
350.213
312.359
350.213
302.712
312.359
340.33
365.609
331.373
300.503
300.591
310.317
300.622
350.213
312.359
349.928
300.676
349.928
300.595
331.373
349.928
310.317
312.359
350.213
300.597
349.928
300.961
349.928
350.213
350.213
350.213
312.359
349.928
350.213
351.945
350.213
350.213
312.359
349.928
312.359
312.359
310.317
312.359
310.317
312.359
338.848
350.213
347.629
310.317
310.317
334.22
302.549
300.614
300.598
312.359
349.928
349.928
310.317
310.317
312.359
300.583
352.24
300.457
350.213
340.938
349.928
312.359
349.928
300.591
367.834
301.696
339.692
350.213
310.317
349.928
310.317
312.359
310.317
356.141
355.228
300.599
312.359
312.359
312.359
310.317
355.817
310.317
300.611
349.928
300.583
310.317
312.359
360.194
310.317
310.317
361.938
347.955
353.99
300.557
312.359
343.236
349.928
354.819
365.932
300.656
312.359
349.928
350.213
300.595
350.213
349.928
349.928
312.359
310.317
350.213
352.24
350.213
312.359
350.213
350.213
300.793
310.317
310.317
302.44
349.928
350.213
350.213
350.213
310.317
312.359
302.435
300.585
342.123
331.222
349.928
332.097
350.213
332.614
344.601
300.489
300.698
301.768
312.359
350.213
350.213
339.873
349.928
349.928
312.359
352.24
310.317
310.317
301.578
350.213
350.213
300.782
310.317
301.052
360.194
310.317
333.034
338.199
300.585
300.585
302.248
312.359
310.317
310.317
310.317
302.256
312.359
312.359
347.467
301.696
349.928
310.317
349.928
349.928
348.664
301.252
300.614
355.446
310.317
343.137
365.093
333.034
350.213
312.359
349.928
348.3
300.835
300.447
361.828
349.928
349.928
350.978
312.359
312.359
302.12
355.197
300.457
300.515
312.359
356.795
355.199
300.585
300.642
310.317
300.771
300.589
310.317
350.213
300.614
300.438
300.771
349.928
349.928
332.004
342.123
349.928
312.359
355.546
352.368
349.928
349.928
349.928
300.626
300.589
312.359
340.134
300.637
312.359
312.359
312.359
310.317
343.735
331.312
350.213
312.359
344.601
312.359
350.213
312.359
348.998
351.945
349.928
310.317
350.213
350.213
310.317
350.213
300.585
349.928
300.601
310.317
310.317
356.141
302.271
333.328
350.213
312.359
349.928
312.359
312.359
310.317
310.317
310.317
349.928
310.317
349.733
350.213
300.456
350.213
365.093
349.733
312.359
349.928
347.707
349.928
300.607
350.213
332.097
310.317
312.359
312.359
350.213
335.386
300.444
335.996
349.928
310.317
350.213
338.049
350.213
349.928
361.638
349.928
332.822
300.591
301.563
331.373
350.213
312.359
301.641
350.213
349.928
310.317
300.557
310.317
340.436
349.928
312.359
350.213
331.74
366.371
300.456
312.359
312.359
300.626
310.317
300.875
310.317
312.359
349.928
355.197
351.246
347.629
350.213
349.928
310.317
349.928
310.317
300.541
341.167
301.454
310.317
350.213
350.213
300.591
349.928
349.928
310.317
331.373
348.038
349.928
349.928
350.213
349.928
350.213
349.928
349.928
310.317
350.213
350.213
349.928
350.213
310.317
300.591
310.317
310.317
349.928
350.213
312.359
349.928
349.928
356.119
300.637
312.359
349.928
361.224
310.317
312.359
350.213
349.928
350.213
350.213
349.928
312.359
349.928
366.885
310.317
300.771
349.928
350.213
301.768
301.86
332.477
350.213
333.709
349.928
355.582
312.359
310.317
310.317
310.317
310.317
349.928
312.359
312.359
301.345
349.928
350.213
332.293
350.213
310.317
312.359
300.585
300.637
349.928