<?xml version="1.0"?>
<VTKFile type="PolyData" version="0.1" byte_order="LittleEndian">
  <PolyData>
    <Piece NumberOfPoints="50000" NumberOfVerts="50000" NumberOfLines="0" NumberOfStrips="0" NumberOfPolys="0">
      <Points>
        <DataArray type="Float32" NumberOfComponents="3" format="ascii">
0.0728209 0.00233632 0
-0.0674817 0.00123337 0
0.0701843 0.000294549 0
0.0734237 0.000399978 0
-0.0583523 0.00185641 0
-0.0488121 0.00112644 0
0.0242021 -0.00380351 0
-0.0607802 0.000698007 0
0.02157 -0.00282078 0
-0.00387993 0.00231029 0
0.0548873 -0.00149 0
0.0703587 0.00221031 0
-0.0390255 0.00200062 0
-0.0270664 -0.00355943 0
-0.073648 0.0011243 0
0.056473 0.00294142 0
-0.00953078 0.000369947 0
0.072681 0.00106994 0
0.0278778 0.00101112 0
-0.0674528 0.00138926 0
-0.0708819 0.0017009 0
0.0627826 0.00196464 0
-0.069712 0.00118229 0
0.0711527 0.000781759 0
0.0451845 -0.00150924 0
0.0525224 0.00306485 0
-0.0687388 -0.000610824 0
0.0730414 0.000177177 0
-0.048725 0.00491668 0
-0.0729838 0.00233785 0
-0.0544181 0.00289953 0
-0.0501519 -0.00218772 0
0.0724347 0.000935789 0
0.0726288 0.000583328 0
0.0143058 0.00166837 0
0.0739663 0.000487293 0
0.0228183 0.00102265 0
-0.0725691 0.00115775 0
-0.0672157 -0.000204098 0
-0.074902 0.000279635 0
0.0529226 0.00310694 0
0.0561367 0.00186139 0
-0.0693025 0.000279953 0
0.0719806 0.000918624 0
0.0742012 0.0010132 0
-0.0711753 0.00227831 0
0.0710197 0.00169296 0
0.0362946 -0.0019011 0
0.0699174 0.000842399 0
0.0716237 0.000818497 0
0.029888 0.00457185 0
-0.069963 0.000520169 0
-0.0479994 0.00243178 0
0.0707789 0.00132071 0
-0.0687312 0.00116141 0
-0.0731232 0.00119179 0
0.0728197 0.000565319 0
0.0294253 0.00282781 0
0.054153 0.00211993 0
0.0751009 -8.34972e-05 0
0.0610244 0.00162424 0
0.0736644 0.00128653 0
0.0164744 -0.00489866 0
0.074948 0.000469551 0
-0.022906 0.00376107 0
-0.0686196 0.000980524 0
0.0712845 0.000622369 0
0.0729987 0.000661946 0
0.0753976 0.00150536 0
0.0524018 0.000946292 0
-0.0691883 0.00132699 0
0.0713816 0.00147723 0
0.0396096 0.0010475 0
0.0397103 0.00200173 0
0.0340782 0.0016878 0
-0.0705103 0.000268673 0
0.0616812 0.00299466 0
-0.0665836 0.001524 0
0.0546468 0.00199702 0
-0.0729333 0.001037 0
-0.0355988 -0.00514585 0
-0.0715867 0.00152531 0
0.0675819 0.00173014 0
-0.0697318 0.000845828 0
0.07501 -4.36036e-05 0
-0.0696255 0.00134311 0
0.0750587 -3.17528e-05 0
-0.0306416 -0.000743897 0
-0.0295057 0.00481937 0
-0.070602 -0.000561838 0
0.0708473 0.00201705 0
-0.0690013 0.000616773 0
0.0707709 0.000468661 0
-0.0466639 0.00422622 0
-0.00624305 -0.0030234 0
-0.0616796 0.00169501 0
0.0710689 0.00238909 0
-0.0708993 0.00132797 0
-0.07488 0.00204534 0
-0.0739473 0.000570979 0
-0.0616406 -0.000582498 0
-0.0693056 -0.000289101 0
0.075392 0.000689896 0
-0.0289423 -0.00285212 0
0.0759222 0.000709787 0
0.0617358 0.00302571 0
0.0464802 0.00204243 0
0.00415552 0.00212651 0
0.069552 0.00159356 0
-0.0702763 -0.000110724 0
-0.052024 0.00423518 0
-0.0710537 0.00130806 0
-0.0601516 0.00262902 0
43.1482 62.4159 0
0.0476183 0.00210129 0
-0.0699133 0.00138625 0
-0.0725707 0.00152651 0
1.09052 1.49157 0
-0.0707023 0.00102356 0
-0.00267663 -0.000692783 0
0.0730712 0.000565226 0
-0.068296 3.55446e-05 0
0.0494739 0.000204833 0
-0.0647251 0.00207312 0
0.0715473 0.000681706 0
0.0696374 0.000639947 0
0.0229511 0.00496142 0
0.0731988 0.00158285 0
-0.0624662 -0.000460958 0
0.0553948 0.000630767 0
0.0739637 0.000252218 0
0.0732707 0.000733492 0
-0.0743815 0.000881079 0
-0.0619 0.00147239 0
0.0752549 0.000501486 0
0.0715716 0.00063621 0
0.0687814 0.000302645 0
-0.0104171 0.00132436 0
0.0572263 -0.00170199 0
0.0558032 -0.00130865 0
0.0572038 -0.00174508 0
0.0678197 0.00249558 0
0.0739109 0.000218095 0
-0.0159477 -0.00167252 0
-0.0722765 0.00192791 0
0.0485902 -0.00315326 0
-0.0455113 0.00429071 0
-0.0712124 0.00109568 0
-0.049932 -0.00270793 0
-0.0714883 0.00139221 0
0.0554998 0.0020992 0
0.0711223 0.00122867 0
-0.0209191 -0.00130098 0
0.0575865 -0.00102836 0
0.0572124 0.00227336 0
0.0706684 0.00153045 0
0.0481454 -0.000920114 0
-0.0701676 0.00122751 0
-0.0295512 -0.000284701 0
0.0737377 0.000753793 0
0.0492801 0.000502197 0
-0.0637513 0.000186519 0
-0.0689338 0.00118058 0
-0.0717254 0.00118844 0
-0.0177941 0.00252718 0
0.0566085 -0.000324261 0
0.0639583 -0.000194561 0
0.0646396 0.00144516 0
0.0548159 0.00225847 0
-0.0287503 0.000868577 0
0.0758266 -5.20802e-05 0
-0.0686703 0.00128848 0
-0.015575 -0.00026981 0
0.0735554 0.00161269 0
-0.0122863 0.000166873 0
-0.0547698 0.00353217 0
-0.0688628 0.00117611 0
-0.0410177 -0.00118307 0
-0.0699411 0.000303811 0
-0.070314 -0.00046533 0
0.0703497 0.000795815 0
-0.0710235 0.00186342 0
-0.0699099 0.00168817 0
0.0727805 0.00178351 0
0.070771 0.000644892 0
0.0543378 -0.00226022 0
0.0759886 0.000207572 0
0.0750007 0.000887021 0
0.0729698 0.000159213 0
0.00852021 0.00586955 0
0.0741628 0.000163988 0
0.0598371 -0.000824776 0
-0.0463295 -0.00245581 0
0.0664952 0.00193381 0
-0.0645747 0.00187782 0
0.0704088 0.0011292 0
-0.0572848 0.00283067 0
-0.0613525 0.00168873 0
-0.0689568 0.00142605 0
0.0714237 0.00171612 0
-0.0454295 0.00409937 0
0.0747223 0.00128587 0
0.0648842 -0.000176104 0
-0.0137653 -0.000478551 0
0.0759078 -7.03084e-05 0
-0.0683456 -0.000728485 0
0.00999812 0.00886762 0
0.0304014 -0.000393945 0
-0.0612265 0.00264855 0
-0.0427053 -0.00103239 0
0.069689 0.000918919 0
-0.0293336 -0.002912 0
0.0654281 0.000144471 0
-0.0591461 0.00270514 0
-0.0399754 -0.00202105 0
-0.0716565 0.00180311 0
-0.070695 0.00209145 0
0.0722305 0.000765325 0
-0.0722855 0.000490355 0
-0.00777227 0.00444672 0
-0.055332 0.00283041 0
-0.0723519 0.00137062 0
-0.0667153 -0.000381504 0
0.0752818 0.000288123 0
0.0265796 0.0050921 0
-0.0689297 0.0012662 0
0.0754494 0.00100332 0
0.072759 0.00066833 0
-0.0607874 0.00248106 0
-0.0724187 0.000599039 0
-0.0713024 1.34755e-05 0
0.0709532 0.00158967 0
0.0365791 0.00492053 0
-0.0102141 0.00339926 0
-0.0735682 0.00151143 0
-0.0630056 0.00179147 0
0.0551559 -0.00230688 0
-0.0551546 -5.31945e-05 0
-0.0701412 0.00132651 0
0.0441217 0.000267546 0
0.0741202 0.000795174 0
-0.0647162 -0.000523297 0
-0.0711386 0.00132107 0
-0.0401908 -0.0017139 0
0.0364054 0.00198991 0
0.0646011 0.00153045 0
-0.066719 0.00199347 0
0.0727868 0.00066663 0
0.0745185 0.00127054 0
0.0427716 0.0029967 0
0.0447421 0.00155619 0
-0.0666059 0.00163996 0
0.0700681 0.000273501 0
-0.0308245 -0.000895311 0
-0.0642874 0.0021903 0
0.0703315 0.00075401 0
-0.0622989 0.00215547 0
0.0617909 0.00237447 0
0.0269506 0.00488157 0
0.0392422 0.000863219 0
0.0746048 0.000970908 0
-0.0665839 0.0016092 0
0.0141008 -0.000674366 0
0.0074229 -0.00167473 0
-0.0471846 0.00135692 0
-0.0703307 0.000901113 0
-0.0690199 0.00125064 0
-0.0688423 0.000453112 0
0.0721491 0.000630885 0
0.0713835 0.000657958 0
0.0735901 0.000635272 0
-0.0710571 0.000184441 0
0.047255 0.00132908 0
0.00421938 0.00278314 0
-0.0739386 0.00161768 0
-0.071795 0.0011351 0
0.0700436 0.000738533 0
-0.0686314 0.00126683 0
0.0690849 0.00194743 0
-0.0698523 0.000451175 0
-0.0673138 0.000704137 0
-0.0303142 -0.00325873 0
-0.0708648 0.0011589 0
0.0682518 0.000406765 0
-0.059713 0.00264976 0
-0.0673727 0.000168745 0
-0.0261169 0.00426015 0
-0.0707789 0.00129359 0
-0.0716781 0.00140045 0
0.061635 0.000242702 0
-0.0245771 0.00195884 0
0.0720147 0.000642399 0
0.0735572 0.000294144 0
0.0466722 0.00323683 0
0.0744027 0.00139087 0
0.0711716 0.00193478 0
0.0740597 0.00154993 0
-0.0476284 0.00485611 0
-0.0663602 0.00108453 0
-0.0735121 0.000899261 0
0.0760941 0.000966415 0
-0.00921361 0.00207011 0
0.0717012 0.000495336 0
0.0701944 0.00140872 0
0.0737546 0.000672732 0
0.013095 0.00291675 0
-0.0362762 0.00514761 0
0.0619246 0.00174059 0
-0.00775327 0.000830912 0
-0.0340373 0.00240793 0
-0.0574847 0.00279359 0
0.0722283 0.00202717 0
-0.0507116 0.00332215 0
0.0663895 -0.00016109 0
0.0548479 -5.21297e-05 0
-0.0735379 0.00183649 0
0.0581281 -0.00181092 0
0.0754842 -0.000110586 0
0.0674399 0.000258816 0
0.0724202 0.00215066 0
-0.0717235 0.00167667 0
-0.014974 0.00341228 0
0.073364 0.00116606 0
0.0732232 0.000640184 0
0.0336564 0.00512247 0
-0.0686154 0.000629579 0
-0.0669185 0.00163396 0
0.0752762 0.00089482 0
-0.0681942 0.000206359 0
0.0729978 0.0012685 0
0.0733278 0.000377918 0
0.0349715 -0.00332389 0
0.0699221 0.00141787 0
-0.0703666 0.00131521 0
-0.0597697 0.000640423 0
-0.0398868 0.000306637 0
0.0063962 -0.000571482 0
0.00916339 -0.00426268 0
-0.0644815 0.00133549 0
0.0325408 -0.00377116 0
-0.00661206 0.00771956 0
-0.0728332 0.00179997 0
-0.0513838 0.00316328 0
-0.0709676 0.00151643 0
-0.028569 -0.00162287 0
0.0734998 0.00205586 0
-0.0497959 0.00345788 0
-0.0720802 0.000699852 0
-7.63079 31.5669 0
0.0732076 -0.000110376 0
0.0728274 0.000613713 0
-0.0579482 0.00325321 0
0.0711017 0.00135166 0
0.0672576 0.000621583 0
-75.4533 -134.937 0
0.0225622 0.00334681 0
-0.0712596 0.00137973 0
-0.0586124 0.000315518 0
0.0721191 0.00143229 0
0.582267 -1.19692 0
0.06816 0.00167684 0
-0.0698614 -0.000375031 0
-0.043879 0.000802331 0
-0.0709524 0.000118842 0
-0.0721757 0.00191788 0
0.0716848 0.000622957 0
-0.0728627 0.000486095 0
-0.0630381 0.00237307 0
0.0559807 0.00300611 0
-0.0687363 0.000746549 0
-0.0568779 0.00325689 0
-0.0634075 0.0022039 0
0.0722578 0.00154739 0
0.065231 -0.000441831 0
-0.0416729 0.00411151 0
0.0745745 0.000444703 0
-0.0713836 -0.000297747 0
-0.0656681 0.000110665 0
-0.0720766 0.000945517 0
0.00686962 -0.00455838 0
-0.0694816 -0.000245334 0
0.0717907 0.00158466 0
-0.0703899 0.00139462 0
-0.0703321 0.00107543 0
-0.0165231 0.00342368 0
0.0466483 0.00320017 0
-0.0219667 0.00711964 0
0.0157307 0.00439286 0
-0.071279 0.00142253 0
-0.0121101 0.00141173 0
-0.0715314 0.000545387 0
-0.0717717 0.00170312 0
0.0699596 -0.000211477 0
0.061194 0.00245422 0
-0.0667741 0.00188646 0
0.0653432 0.0017019 0
0.0644086 0.00103891 0
-0.0683451 0.00128409 0
-0.0370871 -0.00048461 0
0.0507954 -0.00224485 0
-0.0687006 0.000866344 0
0.0616535 -0.000779806 0
0.0287061 -6.07429e-05 0
-0.070094 0.000565098 0
0.0670383 0.000693815 0
0.0704961 0.000392122 0
[...]
      <PointData Scalars="T">
        <DataArray type="Float32" Name="T" format="ascii" NumberOfComponents="1">
312.01
318.228
301.154
300.764
333.645
321.523
315.81
324.233
315.81
339.98
315.81
312.01
339.98
336.057
321.523
312.01
329.028
300.562
300.413
318.244
325.642
312.01
319.337
300.594
315.81
312.01
336.057
301.736
339.98
339.98
339.98
336.057
300.417
300.501
301.281
300.593
300.427
320.318
336.057
328.893
312.01
301.949
328.893
300.415
300.413
339.98
301.59
315.81
300.447
300.574
312.01
326.522
339.98
300.65
319.86
319.233
300.518
312.01
312.01
315.81
301.008
300.627
315.81
300.613
339.98
324.035
300.473
300.461
300.831
300.418
317.806
300.851
300.607
312.01
301.438
329.23
312.01
320.81
312.01
322.677
336.057
320.81
301.942
321.531
315.81
317.841
315.81
336.057
339.98
336.057
312.01
324.962
300.613
339.98
336.057
324.955
312.01
317.806
339.98
325.802
336.057
336.057
300.457
336.057
300.459
312.01
312.01
312.01
300.886
336.057
339.98
317.802
339.98
312.01
312.01
318.244
320.81
312.01
322.889
336.057
300.518
337.813
301.396
339.98
300.457
300.47
312.01
300.854
336.057
300.47
301.247
300.481
321.776
319.787
300.575
300.47
301.12
317.806
315.81
315.81
315.81
312.01
301.344
336.057
339.98
315.81
339.98
321.679
336.057
318.402
312.01
300.517
336.057
315.81
312.01
300.806
315.81
318.497
336.057
300.517
300.575
330.004
319.337
319.337
339.98
315.81
315.81
300.826
312.01
322.455
315.81
317.824
336.057
300.969
330.949
339.98
319.496
336.057
328.953
336.057
300.61
334.062
324.304
302.052
300.466
315.81
301.396
300.416
301.973
312.01
301.846
315.81
336.057
312.01
334.345
300.497
339.98
324.304
319.041
301.798
339.98
300.627
315.81
336.057
315.81
336.057
312.01
315.81
339.98
336.057
300.415
336.057
302.116
339.98
336.057
332.148
339.98
300.538
326.959
339.98
339.98
318.127
336.057
301.188
312.01
317.851
300.41
300.461
339.98
325.279
337.501
300.854
312.01
339.98
320.504
331.747
315.81
336.057
317.806
301.235
300.61
336.057
317.806
336.057
312.01
300.806
339.98
300.461
300.612
312.01
300.805
322.518
301.212
336.057
339.98
300.517
339.98
312.01
312.01
300.421
300.419
322.382
315.81
315.81
317.886
323.393
317.919
327.294
300.47
300.463
300.47
330.004
300.65
312.01
322.323
321.324
300.481
317.851
312.01
327.294
324.3
336.057
320.318
300.734
339.98
330.949
339.98
317.809
318.576
301.262
339.98
300.466
301.154
312.01
300.708
312.01
300.803
339.98
321.705
323.267
300.42
339.98
300.584
300.731
300.459
312.01
339.98
301.988
321.62
339.98
339.98
312.01
339.98
315.81
315.81
332.953
315.81
315.81
301.247
312.01
323.843
339.98
300.499
300.466
312.01
324.573
322.518
300.415
329.596
300.594
300.815
315.81
300.757
317.801
324.421
328.953
315.81
315.81
317.816
315.81
339.98
331.747
339.98
320.504
336.057
312.01
339.98
324.233
339.98
315.81
300.479
339.98
300.657
300.473
336.057
312.01
318.127
329.906
300.803
315.81
301.356
336.057
321.688
334.43
339.98
300.473
326.976
339.98
312.01
324.249
339.98
339.98
300.803
315.81
339.98
300.641
336.057
334.43
330.981
315.81
336.057
300.854
318.402
322.111
339.98
312.01
339.98
312.01
319.041
318.804
326.361
325.642
315.81
312.01
334.674
301.694
300.565
317.824
336.057
315.81
322.455
315.81
315.81
326.113
300.457
300.764
315.81
300.538
300.536
312.01
318.497
312.01
336.057
312.01
318.497
336.057
339.98
315.81
319.204
300.473
339.98
312.01
317.816
300.499
300.457
312.01
315.81
317.806
319.337
300.518
339.98
312.01
319.337
300.821
325.544
335.746
321.075
322.779
300.676
300.518
339.98
301.235
321.688
325.279
336.057
322.415
336.057
312.01
315.81
328.097
300.553
330.949
326.951
301.309
304.559
328.322
319.787
321.531
336.057
300.418
336.057
300.417
339.98
336.057
300.459
301.968
336.057
336.057
339.98
339.98
312.01
321.688
315.81
300.473
300.821
339.98
324.955
318.804
300.538
312.01
324.425
328.322
337.594
319.337
300.562
301.281
300.457
300.413
339.98
312.01
312.01
300.413
318.055
312.01
315.81
324.323
300.584
317.851
319.732
339.98
336.057
325.279
336.057
336.057
336.057
315.81
315.81
315.81
312.01
301.285
312.01
312.01
335.746
312.01
318.951
300.787
312.01
339.98
300.924
321.908
322.889
339.98
325.639
312.01
315.81
302.053
300.494
300.575
315.81
339.98
302.045
300.803
324.425
300.803
321.453
317.841
336.057
301.61
300.538
322.381
339.98
334.43
326.352
336.057
312.01
312.01
300.499
301.878
336.057
319.787
301.008
320.504
300.416
312.01
329.582
317.806
315.81
335.135
300.665
312.01
332.076
302.042
336.057
300.509
323.911
339.98
300.597
315.81
336.057
328.65
322.236
318.228
339.98
301.968
301.736
300.494
300.419
312.01
336.057
324.425
324.233
336.057
317.886
300.783
315.81
339.98
312.01
326.522
300.41
300.924
300.421
319.496
312.01
336.057
324.069
312.01
304.293
336.057
312.01
317.886
315.81
300.815
301.438
300.459
336.057
328.893
322.518
323.393
312.01
330.949
315.81
326.352
336.057
312.01
300.481
328.548
328.322
339.98
339.98
300.546
301.396
339.98
324.319
336.057
312.01
315.81
317.809
339.98
300.663
301.262
312.01
312.01
319.496
336.057
329.582
336.057
336.057
300.814
339.98
312.01
300.612
336.057
339.98
300.481
315.81
336.057
319.204
315.81
336.057
336.057
317.919
300.575
336.057
320.906
312.01
339.98
319.225
315.81
312.01
317.824
312.01
301.235
321.679
312.01
300.463
318.804
339.98
315.81
300.459
300.495
312.01
300.851
324.308
324.573
339.98
323.102
301.988
317.886
336.057
300.418
300.731
320.81
320.318
323.102
300.473
301.115
312.01
312.01
323.843
300.457
301.076
323.648
319.732
300.627
300.479
312.01
312.01
300.553
333.266
302.052
300.65
300.935
317.801
312.01
334.674
315.81
300.676
315.81
301.008
315.81
339.98
300.499
322.952
300.851
317.823
339.98
339.98
315.81
336.057
302.021
317.801
300.471
301.988
336.057
315.81
323.267
326.951
324.355
320.906
339.98
322.518
300.466
300.981
315.81
300.471
315.81
325.639
312.01
317.809
324.042
300.663
301.262
318.055
300.417
319.787
312.01
322.779
339.98
339.98
336.057
327.052
300.417
339.98
312.01
339.98
336.057
322.349
327.294
336.057
300.517
312.01
300.815
339.98
336.057
328.254
321.532
336.057
339.98
328.601
312.01
317.824
336.057
315.81
300.734
300.461
319.86
321.908
329.58
300.821
326.976
300.537
318.804
336.057
326.959
312.01
300.471
312.01
300.497
300.546
339.98
324.304
300.663
339.98
312.01
321.523
300.812
319.337
336.133
300.652
317.841
300.506
322.323
319.993
304.547
300.562
327.052
312.01
315.81
300.537
312.01
339.98
336.057
324.308
312.01
321.908
300.562
312.01
300.663
315.81
324.421
319.732
300.501
325.642
339.98
315.81
300.471
300.691
300.486
322.349
336.057
312.01
321.316
300.507
300.826
317.809
339.98
300.647
321.776
315.81
300.463
317.886
317.816
300.815
300.417
339.98
336.057
336.057
312.01
300.501
321.688
339.98
319.233
322.591
1011.62
300.575
339.98
300.518
321.532
300.546
300.471
321.954
300.509
320.906
300.805
300.479
334.674
336.057
300.64
301.309
312.01
302.016
301.949
312.01
317.841
312.01
301.188
324.209
315.81
302.003
320.177
300.567
315.81
301.915
322.349
320.81
336.057
315.81
336.057
300.486
336.057
319.496
339.98
312.01
332.826
324.355
336.057
315.81
323.911
319.732
315.81
300.553
336.057
336.057
303.007
339.98
300.935
315.81
326.352
312.01
336.057
300.499
315.81
312.01
315.81
312.01
312.01
339.98
300.517
301.235
300.501
339.98
300.473
336.057
339.98
329.596
301.262
301.115
318.497
336.057
339.98
315.81
319.885
339.98
300.602
300.463
312.01
300.757
317.886
320.318
301.846
339.98
312.01
339.98
336.057
300.497
329.596
300.981
326.266
329.906
339.98
320.81
339.98
321.327
336.057
335.135
339.98
312.01
322.952
304.293
315.81
315.81
300.935
301.008
339.98
300.495
317.886
312.01
317.801
300.783
300.5
331.061
312.01
339.98
300.641
301.942
315.81
326.785
300.486
339.98
300.419
336.057
333.762
312.01
336.057
318.402
322.382
336.057
315.81
312.01
312.01
312.01
336.057
315.81
325.802
315.81
300.428
312.01
312.01
300.64
315.81
300.479
336.057
312.01
300.657
327.052
339.98
301.12
319.594
300.413
339.98
336.057
318.005
321.327
336.057
317.809
300.575
336.057
312.01
320.318
315.81
339.98
312.01
339.98
339.98
300.841
312.01
328.254
315.81
312.01
300.536
300.416
336.057
339.98
324.3
323.911
315.81
322.518
300.447
323.102
339.98
300.624
300.613
320.177
312.01
315.81
300.574
315.81
318.244
300.61
301.865
339.98
339.98
339.98
331.061
339.98
315.81
317.809
301.736
336.057
300.499
301.846
312.01
317.802
336.057
336.057
322.323
315.81
312.01
336.057
300.593
300.597
336.057
336.057
300.575
318.127
300.518
315.81
301.188
336.057
339.98
339.98
319.993
301.438
323.632
300.676
321.532
339.98
300.463
301.356
312.01
315.81
300.757
324.3
322.889
336.057
317.851
300.461
300.594
301.188
312.01
312.01
302.053
336.057
319.594
322.779
332.148
324.573
317.824
317.919
300.428
315.81
315.81
300.457
300.546
317.851
315.81
319.041
300.415
327.865
322.518
312.01
319.86
322.875
300.47
330.981
315.81
301.12
315.81
300.575
312.01
300.841
301.309
312.01
327.679
300.565
321.679
301.438
312.01
300.536
326.522
302.116
327.052
312.01
312.01
312.01
312.01
339.98
315.81
339.98
312.01
300.602
315.81
323.632
323.238
321.776
315.81
315.81
336.057
312.01
319.233
300.64
300.473
336.057
322.518
325.544
315.81
301.281
319.041
300.47
339.98
300.627
319.787
317.802
323.393
339.98
315.81
301.262
327.684
323.102
339.98
339.98
315.81
332.826
312.01
322.215
312.01
300.647
339.98
318.497
301.356
339.98
300.471
315.81
315.81
339.98
300.415
315.81
336.057
339.98
315.81
319.885
300.461
339.98
317.816
300.466
336.057
336.057
300.567
300.567
300.803
300.684
312.01
326.327
300.517
312.01
339.98
339.98
315.81
318.055
312.01
300.427
321.62
318.228
312.01
324.069
322.455
300.607
315.81
324.355
321.523
300.509
319.204
322.716
327.679
325.802
339.98
301.12
315.81
339.98
318.804
315.81
336.057
300.815
312.01
312.01
339.98
321.075
301.12
321.954
312.01
319.732
312.01
301.212
321.523
300.538
300.575
336.057
317.823
336.057
329.582
317.802
324.955
318.576
319.993
312.01
300.517
301.396
319.732
315.81
339.98
318.055
300.495
317.824
317.806
300.757
318.055
327.052
301.076
336.057
327.718
312.01
319.204
302.016
300.507
300.546
315.81
324.955
300.649
300.562
317.886
317.816
312.01
339.98
339.98
300.417
300.501
300.457
336.057
300.47
339.98
300.497
301.262
322.716
317.824
317.851
300.684
300.517
339.98
339.98
319.787
336.057
300.5
336.057
315.81
336.057
336.057
300.61
312.01
301.262
336.057
312.01
315.81
312.01
321.62
300.509
323.393
324.319
339.98
318.497
324.425
328.65
329.576
312.01
300.665
336.057
319.993
339.98
315.81
328.254
339.98
317.806
336.057
336.057
315.81
301.973
300.849
317.802
312.01
312.01
300.466
329.906
303.624
300.497
312.01
300.416
301.878
334.345
322.236
324.349
339.98
321.324
300.479
336.057
336.057
312.01
320.177
336.057
339.98
321.62
319.86
317.816
324.375
304.547
336.057
328.097
339.98
336.057
318.244
315.81
336.057
339.98
315.81
300.613
304.559
336.057
336.057
339.98
312.01
317.823
326.522
300.497
339.98
317.816
339.98
301.008
339.98
312.01
312.01
315.81
327.464
303.466
300.506
336.057
324.351
301.076
312.01
336.057
334.674
327.427
300.593
321.59
325.568
339.98
301.188
312.01
315.81
312.01
336.057
339.98
317.824
315.81
312.01
327.427
301.988
301.115
324.233
336.057
327.679
301.893
312.01
301.694
319.496
312.01
324.349
312.01
339.98
318.402
321.705
300.65
300.481
315.81
300.734
326.951
301.235
315.81
321.688
318.055
312.01
300.821
300.536
339.98
315.81
317.824
300.557
300.803
315.81
300.565
324.308
317.886
324.319
301.438
301.344
315.81
300.459
339.98
301.915
317.816
300.5
300.594
312.01
336.057
300.428
318.228
301.968
312.01
301.212
324.323
315.81
315.81
303.624
300.584
300.842
322.677
312.01
300.85
339.98
331.534
324.355
321.453
328.254
339.98
321.688
339.98
300.641
300.463
336.057
312.01
332.953
321.523
319.496
315.81
336.057
336.057
300.647
300.815
301.694
312.01
312.01
321.705
300.612
300.831
301.285
301.694
317.886
300.415
322.889
336.057
336.057
315.81
336.057
339.98
332.618
339.98
339.98
339.98
322.455
339.98
300.612
300.708
300.575
318.951
301.396
319.233
300.566
312.01
320.177
300.607
300.61
312.01
300.821
315.81
321.453
315.81
300.418
339.98
312.01
321.532
312.01
339.98
301.973
300.517
333.266
339.98
336.057
339.98
336.057
323.843
315.81
315.81
315.81
336.057
312.01
339.98
300.461
326.951
312.01
317.851
339.98
336.057
318.005
300.594
302.775
327.679
315.81
300.849
329.23
339.98
300.602
300.831
319.403
300.831
300.805
315.81
300.481
315.81
336.057
339.98
336.057
336.057
312.01
315.81
312.01
300.537
300.624
339.98
324.351
324.233
300.546
300.419
300.457
315.81
319.993
315.81
302.045
300.676
301.59
300.567
312.01
323.843
319.403
339.98
312.01
318.951
339.98
300.463
300.42
300.567
300.41
322.518
301.932
319.403
300.831
312.01
339.98
315.81
336.057
336.057
336.057
300.461
336.057
336.057
321.532
336.057
324.573
317.806
336.057
327.684
321.62
315.81
339.98
322.382
312.01
301.115
315.81
300.466
312.01
318.228
339.98
312.01
336.057
336.057
312.01
319.337
332.45
300.499
312.01
300.486
339.98
318.576
315.81
339.98
339.98
300.709
325.568
300.413
300.484
301.396
300.466
339.98
319.204
339.98
300.734
318.497
339.98
339.98
322.381
328.601
322.779
312.01
336.057
339.98
318.055
312.01
322.779
300.518
327.427
322.455
312.01
317.851
330.345
300.501
300.461
325.802
324.209
322.875
300.567
321.531
317.851
322.236
336.057
326.714
336.057
336.057
300.831
300.734
336.057
339.98
315.81
300.657
315.81
336.057
300.787
315.81
300.803
300.826
326.714
336.057
339.98
318.497
300.499
320.318
312.01
319.496
336.057
336.057
303.986
300.41
331.696
333.645
300.473
321.327
300.812
315.81
312.01
301.247
315.81
312.01
320.318
329.596
326.785
326.266
301.154
300.495
328.097
300.61
325.639
317.886
339.98
336.057
321.59
300.64
300.538
318.228
336.057
300.534
312.01
318.127
304.547
318.244
300.463
315.81
300.461
339.98
312.01
315.81
300.546
300.924
325.802
300.413
336.057
336.057
300.566
300.463
326.522
321.324
312.01
300.641
315.81
329.576
336.057
317.823
300.612
300.649
336.057
301.949
300.764
323.632
315.81
312.01
339.98
331.696
324.355
320.177
339.98
322.111
339.98
339.98
300.594
336.057
300.413
331.061
327.464
301.115
321.705
339.98
319.787
336.057
315.81
322.518
336.057
300.507
339.98
324.394
317.801
312.01
300.461
300.665
300.527
336.057
336.057
317.851
324.421
319.86
339.98
336.057
317.851
319.496
315.81
301.059
312.01
300.497
300.417
336.057
324.042
312.01
312.01
328.097
336.057
318.055
315.81
321.705
339.98
339.98
300.663
319.787
315.81
312.01
300.416
315.81
317.806
302.053
325.642
339.98
336.057
312.01
339.98
312.01
300.518
300.499
300.517
339.98
336.057
300.428
300.538
300.518
312.01
312.01
300.479
336.057
300.501
303.624
319.403
323.632
317.802
315.81
300.459
315.81
319.86
322.111
339.98
312.01
318.804
301.694
322.591
300.498
315.81
315.81
300.457
339.98
300.821
336.057
300.498
300.517
312.01
339.98
336.057
336.057
319.041
327.865
332.076
300.499
319.732
324.3
301.154
315.81
300.534
317.816
322.349
336.057
336.057
312.01
339.98
324.421
336.057
300.665
339.98
330.981
300.47
317.809
312.01
336.057
300.566
319.337
336.057
312.01
339.98
315.81
326.113
319.403
315.81
312.01
336.057
317.851
339.98
300.47
339.98
336.057
300.466
324.233
300.849
301.438
324.349
312.01
300.624
315.81
315.81
300.501
326.361
315.81
312.01
321.776
312.01
339.98
336.057
330.345
323.843
336.057
300.538
326.361
312.01
301.932
312.01
315.81
312.01
300.641
315.81
301.188
335.746
300.594
312.01
336.057
302.116
315.81
300.64
300.419
336.057
300.557
300.486
336.057
312.01
329.576
336.057
301.262
317.806
339.98
300.538
339.98
300.553
300.498
312.01
300.461
300.584
315.81
315.81
300.517
300.417
317.886
336.057
324.351
300.65
300.447
339.98
304.559
300.509
324.233
301.212
302.042
315.81
300.501
315.81
317.919
300.814
300.479
322.215
301.396
336.057
312.01
300.461
300.826
339.98
336.057
312.01
318.127
339.98
315.81
300.557
315.81
339.98
312.01
300.565
322.92
318.228
315.81
315.81
301.281
336.057
329.23
892.715
300.466
301.008
315.81
324.477
320.81
315.81
300.428
312.01
301.008
315.81
322.215
312.01
336.057
312.01
321.59
320.81
300.553
301.438
323.102
321.327
312.01
336.057
322.677
322.889
323.648
322.518
318.055
336.057
300.787
315.81
324.323
300.627
324.042
312.01
300.89
336.057
300.463
315.81
339.98
315.81
323.393
321.688
322.349
317.886
301.188
312.01
315.81
336.057
315.81
336.057
300.709
300.787
319.337
327.865
317.802
300.421
300.498
312.01
300.574
336.057
300.787
321.075
300.479
339.98
300.459
317.801
329.878
312.01
315.81
336.057
300.538
326.714
300.65
339.98
336.057
336.057
336.057
303.624
339.98
336.057
323.393
336.057
336.057
300.764
339.98
301.61
301.212
312.01
301.212
312.01
315.81
319.204
336.057
322.236
312.01
312.01
318.055
300.709
300.538
300.463
300.734
326.714
339.98
301.988
302.003
315.81
300.481
322.236
300.427
332.826
319.496
322.381
300.89
339.98
300.565
328.322
300.624
319.594
336.057
300.886
320.504
312.01
315.81
312.01
324.069
324.209
300.497
300.935
315.81
315.81
312.01
324.323
312.01
300.536
339.98
300.457
312.01
315.81
326.352
312.01
312.01
326.522
322.111
322.875
300.447
315.81
319.86
339.98
323.648
327.865
300.473
315.81
339.98
336.057
300.461
336.057
334.345
339.98
300.764
312.01
336.057
322.455
336.057
315.81
330.949
336.057
300.594
301.059
302.052
300.805
322.349
336.057
336.057
336.057
312.01
315.81
300.814
300.459
319.993
317.816
331.138
317.886
336.057
317.823
320.318
300.421
300.553
300.624
315.81
336.057
336.057
319.225
339.98
333.266
315.81
323.267
312.01
312.01
300.602
336.057
336.057
300.494
302.016
300.538
326.352
312.01
317.823
319.041
300.481
300.457
300.663
301.247
312.01
312.01
312.01
300.826
315.81
315.81
320.906
300.624
321.908
312.01
339.98
322.215
321.705
300.557
300.47
325.544
312.01
320.504
327.464
317.851
336.057
315.81
326.714
321.62
300.501
300.419
326.361
322.381
339.98
322.952
315.81
301.12
300.684
324.308
300.41
300.421
315.81
330.981
324.233
300.457
300.5
312.01
300.594
300.459
312.01
328.953
300.466
300.413
300.612
339.98
339.98
317.824
319.993
332.346
315.81
324.319
323.238
339.98
339.98
322.415
300.5
300.484
315.81
319.787
300.473
315.81
315.81
315.81
300.969
320.177
317.801
336.057
301.188
320.318
300.734
336.057
315.81
322.591
323.393
339.98
312.01
336.057
336.057
312.01
330.949
300.501
339.98
300.536
302.021
312.01
324.069
300.849
317.919
336.057
315.81
339.98
301.344
315.81
312.01
312.01
312.01
339.98
301.188
321.776
336.057
300.416
336.057
327.679
321.776
315.81
339.98
321.532
339.98
300.463
330.345
317.841
301.988
300.787
315.81
336.057
318.228
300.413
318.228
326.266
312.01
336.057
318.804
336.057
339.98
326.785
339.98
317.823
300.501
300.708
317.801
336.057
315.81
300.613
336.057
339.98
312.01
300.484
312.01
319.594
339.98
315.81
336.057
317.841
328.097
300.417
315.81
315.81
300.498
312.01
300.647
312.01
315.81
339.98
324.421
322.889
321.531
334.43
326.266
312.01
321.316
300.854
300.428
319.787
300.593
312.01
336.057
336.057
300.501
339.98
339.98
312.01
317.802
321.523
339.98
333.266
337.594
330.656
336.057
326.714
339.98
312.01
336.057
336.057
339.98
336.057
312.01
300.497
301.115
312.01
339.98
336.057
315.81
339.98
339.98
324.308
300.47
315.81
339.98
326.976
312.01
315.81
336.057
339.98
336.057
336.057
331.138
315.81
339.98
328.097
312.01
300.612
327.427
336.057
300.624
300.641
317.823
336.057
318.055
339.98
324.035
315.81
312.01
312.01
312.01
301.988
339.98
315.81
301.309
300.665
321.59
336.057
317.809
329.582
312.01
315.81
300.459
300.473
333.645
339.98
332.148
300.624
339.98
300.419
327.684
301.188
339.98
300.826
300.481
318.127
325.544
321.523
315.81
339.98
339.98
336.057
300.663
317.801
315.81
322.382
324.319
312.01
300.501
336.057
317.851
315.81
312.01
312.01
300.5
300.557
317.841
300.854
300.471
317.824
319.732
315.81
300.463
318.005
333.266
322.455
315.81
315.81
317.886
300.479
312.01
319.204
312.01
300.597
324.349
336.057
320.504
312.01
317.824
336.057
315.81
320.177
315.81
301.468
324.349
312.01
331.061
339.98
339.98
336.057
300.466
300.538
312.01
300.734
300.597
300.805
339.98
324.349
336.057
317.823
315.81
322.677
315.81
318.576
339.98
318.005
300.536
312.01
300.65
322.323
301.942
319.204
315.81
300.459
318.055
336.057
336.057
326.714
315.81
300.684
315.81
317.886
300.602
312.01
312.01
300.594
317.841
339.98
315.81
300.534
301.988
300.486
336.057
312.01
300.463