<?xml version="1.0"?>
<VTKFile type="ImageData" version="0.1" byte_order="LittleEndian">
  <ImageData Origin="0 0 0" Spacing="1e-05 1e-05 1e-05" WholeExtent="0 191 0 191 0 0">
    <Piece Extent="0 191 0 191 0 0">
      <CellData Scalars="T">
        <DataArray type="Float32" Name="T" format="ascii" NumberOfComponents="1">
540.315
15000
15000
15000
15000
15000
15000
15000
15000
15000
15000
15000
15000
15000
15000
14999.9
14999.9
14999.9
14999.9
14999.8
14999.7
14999.7
14999.5
14999.4
14999.2
14999
14998.6
14998.2
14997.7
14997
14996.2
14995.1
14993.8
14992.2
14990.2
14987.8
14984.8
14981.1
14976.7
14971.3
14964.9
14957.2
14948.1
14937.2
14924.4
14909.4
14891.9
14871.4
14847.7
14820.3
14788.8
14752.8
14711.7
14665.1
14612.4
14553
14486.5
14412.2
14329.6
14238.1
14137.2
14026.4
13905.2
13773.2
13629.9
13475
13308.3
13129.6
12938.8
12735.9
12520.9
12294
12055.7
11806.1
11545.9
11275.7
10996.2
10708.3
10412.7
10110.7
9803.09
9491.19
9176.16
8859.22
8541.66
8224.74
7909.75
7597.96
7290.59
6988.84
6693.86
6406.72
6128.43
5859.89
5601.94
5355.3
5120.6
4898.36
4689
4492.83
4310.07
4140.82
3985.11
3842.87
3713.94
3598.09
3495.04
3404.43
3325.85
3258.86
3202.98
3157.7
3122.48
3096.79
3080.07
3071.78
3071.36
3078.27
3091.98
3111.97
3137.74
3168.79
3204.66
3244.89
3289.05
3336.71
3387.48
3440.95
3496.78
3554.58
3614.01
3674.75
3736.46
3798.82
3861.54
3924.32
3986.86
4048.9
4110.15
4170.37
4229.3
4286.71
4342.36
4396.05
4447.56
4496.72
4543.35
4587.3
4628.41
4666.57
4701.66
4733.6
4762.3
4787.72
4809.8
4828.52
4843.86
4855.84
4864.47
4869.77
4871.8
4870.61
4866.26
4858.83
4848.41
4835.09
4818.98
4800.2
4778.87
4755.12
4729.09
4700.94
4670.81
4638.87
4605.3
4570.25
4533.9
4496.39
4457.83
4418.26
4377.52
4335.19
4290.19
4240.3
4181.02
4103.49
3990.33
3807.44
3487.17
2892.13
1730.52
321.829
1282.86
15000
15000
15000
15000
15000
15000
15000
15000
15000
15000
15000
15000
15000
15000
14999.9
14999.9
14999.9
14999.9
14999.8
14999.7
14999.7
14999.5
14999.4
14999.2
14999
14998.6
14998.2
14997.7
14997
14996.2
14995.1
14993.8
14992.2
14990.2
14987.8
14984.8
14981.1
14976.7
14971.3
14964.9
14957.2
14948.1
14937.2
14924.5
14909.4
14891.9
14871.4
14847.7
14820.4
14788.9
14752.9
14711.8
14665.2
14612.5
14553.1
14486.6
14412.3
14329.7
14238.3
14137.4
14026.6
13905.5
13773.4
13630.1
13475.3
13308.6
13130
12939.2
12736.2
12521.3
12294.4
12056.1
11806.5
11546.4
11276.2
10996.7
10708.7
10413.2
10111.1
9803.49
9491.57
9176.5
8859.53
8541.92
8224.96
7909.91
7598.05
7290.6
6988.78
6693.71
6406.48
6128.09
5859.45
5601.38
5354.63
5119.8
4897.44
4687.95
4491.65
4308.75
4139.37
3983.52
3841.14
3712.07
3596.08
3492.89
3402.14
3323.42
3256.3
3200.28
3154.87
3119.52
3093.7
3076.86
3068.45
3067.91
3074.71
3088.32
3108.21
3133.88
3164.84
3200.62
3240.77
3284.85
3332.44
3383.14
3436.56
3492.32
3550.08
3609.48
3670.18
3731.86
3794.2
3856.91
3919.68
3982.22
4044.27
4105.54
4165.78
4224.74
4282.18
4337.87
4391.6
4443.17
4492.38
4539.07
4583.08
4624.26
4662.48
4697.65
4729.65
4758.43
4783.91
4806.06
4824.85
4840.27
4852.31
4861
4866.36
4868.45
4867.31
4863.01
4855.62
4845.24
4831.96
4815.89
4797.14
4775.84
4752.11
4726.11
4697.97
4667.86
4635.95
4602.39
4567.35
4531.02
4493.52
4454.98
4415.42
4374.71
4332.4
4287.44
4237.63
4178.51
4101.38
3989.29
3809.6
3499.74
2942.01
1926.86
368.816
1291.92
15000
15000
15000
15000
15000
15000
15000
15000
15000
15000
15000
15000
15000
15000
14999.9
14999.9
14999.9
14999.9
14999.8
14999.7
14999.7
14999.5
14999.4
14999.2
14999
14998.6
14998.2
14997.7
14997
14996.2
14995.1
14993.8
14992.2
14990.2
14987.8
14984.8
14981.1
14976.7
14971.3
14964.9
14957.2
14948.1
14937.3
14924.5
14909.5
14891.9
14871.5
14847.8
14820.5
14789
14753
14711.9
14665.3
14612.7
14553.3
14486.8
14412.6
14330
14238.6
14137.8
14027
13905.9
13773.9
13630.7
13475.9
13309.3
13130.6
12939.9
12737
12522
12295.2
12056.9
11807.4
11547.2
11277
10997.6
10709.6
10414
10111.9
9804.29
9492.32
9177.19
8860.15
8542.45
8225.38
7910.22
7598.23
7290.64
6988.66
6693.42
6406.01
6127.42
5858.57
5600.28
5353.29
5118.23
4895.62
4685.87
4489.31
4306.14
4136.49
3980.36
3837.7
3708.35
3592.08
3488.61
3397.58
3318.59
3251.2
3194.91
3149.23
3113.63
3087.56
3070.48
3061.83
3061.06
3067.64
3081.03
3100.72
3126.19
3156.96
3192.57
3232.55
3276.48
3323.92
3374.49
3427.79
3483.45
3541.11
3600.43
3661.06
3722.69
3784.99
3847.67
3910.43
3972.97
4035.03
4096.33
4156.61
4215.63
4273.14
4328.91
4382.73
4434.4
4483.72
4530.53
4574.66
4615.97
4654.33
4689.63
4721.78
4750.7
4776.32
4798.61
4817.54
4833.09
4845.26
4854.07
4859.56
4861.75
4860.71
4856.51
4849.22
4838.92
4825.72
4809.72
4791.03
4769.78
4746.11
4720.15
4692.06
4661.99
4630.1
4596.58
4561.58
4525.27
4487.8
4449.29
4409.76
4369.09
4326.83
4281.95
4232.26
4173.39
4096.81
3986
3809.3
3506.28
2961.75
1953.78
367.16
1293.55
15000
15000
15000
15000
15000
15000
15000
15000
15000
15000
15000
15000
15000
15000
14999.9
14999.9
14999.9
14999.9
14999.8
14999.7
14999.7
14999.5
14999.4
14999.2
14999
14998.6
14998.2
14997.7
14997
14996.2
14995.2
14993.8
14992.2
14990.2
14987.8
14984.8
14981.1
14976.7
14971.4
14964.9
14957.3
14948.1
14937.3
14924.6
14909.6
14892
14871.6
14847.9
14820.6
14789.2
14753.2
14712.1
14665.6
14612.9
14553.6
14487.2
14413
14330.5
14239.1
14138.3
14027.6
13906.6
13774.6
13631.5
13476.7
13310.2
13131.6
12940.9
12738
12523.2
12296.4
12058.1
11808.7
11548.5
11278.4
10998.9
10710.9
10415.3
10113.2
9805.48
9493.44
9178.23
8861.07
8543.25
8226.03
7910.7
7598.51
7290.71
6988.5
6693.01
6405.32
6126.43
5857.27
5598.66
5351.33
5115.91
4892.92
4682.79
4485.84
4302.27
4132.21
3975.67
3832.59
3702.82
3586.14
3482.25
3390.81
3311.41
3243.61
3186.93
3140.86
3104.87
3078.42
3060.97
3051.97
3050.86
3057.11
3070.18
3089.55
3114.73
3145.23
3180.57
3220.31
3264
3311.23
3361.6
3414.72
3470.22
3527.73
3586.93
3647.45
3709
3771.24
3833.88
3896.61
3959.16
4021.24
4082.58
4142.93
4202.02
4259.63
4315.52
4369.48
4421.29
4470.78
4517.76
4562.08
4603.58
4642.14
4677.65
4710.01
4739.13
4764.97
4787.47
4806.6
4822.35
4834.71
4843.71
4849.37
4851.73
4850.85
4846.8
4839.64
4829.47
4816.38
4800.48
4781.89
4760.73
4737.13
4711.24
4683.21
4653.2
4621.37
4587.89
4552.94
4516.67
4479.25
4440.79
4401.31
4360.69
4318.49
4273.71
4224.17
4165.58
4089.54
3979.82
3805.33
3506.75
2971.64
1989.05
368.124
1294.73
15000
15000
15000
15000
15000
15000
15000
15000
15000
15000
15000
15000
15000
15000
14999.9
14999.9
14999.9
14999.9
14999.8
14999.7
14999.7
14999.5
14999.4
14999.2
14999
14998.6
14998.2
14997.7
14997
14996.2
14995.2
14993.9
14992.2
14990.2
14987.8
14984.8
14981.2
14976.7
14971.4
14965
14957.3
14948.2
14937.4
14924.6
14909.7
14892.1
14871.7
14848.1
14820.8
14789.4
14753.4
14712.4
14665.9
14613.3
14554.1
14487.7
14413.5
14331.1
14239.8
14139.1
14028.4
13907.4
13775.6
13632.5
13477.8
13311.4
13132.9
12942.2
12739.5
12524.7
12298
12059.8
11810.3
11550.2
11280.1
11000.6
10712.6
10417
10114.8
9807.07
9494.94
9179.6
8862.31
8544.31
8226.9
7911.34
7598.9
7290.83
6988.3
6692.48
6404.43
6125.16
5855.59
5596.54
5348.76
5112.87
4889.39
4678.76
4481.29
4297.19
4126.59
3969.51
3825.88
3695.56
3578.33
3473.89
3381.9
3301.96
3233.62
3176.41
3129.81
3093.32
3066.37
3048.44
3038.96
3037.4
3043.2
3055.85
3074.81
3099.6
3129.73
3164.72
3204.12
3247.5
3294.45
3344.55
3397.43
3452.71
3510.03
3569.06
3629.45
3690.88
3753.04
3815.62
3878.32
3940.87
4002.97
4064.37
4124.79
4183.99
4241.73
4297.77
4351.9
4403.91
4453.61
4500.82
4545.38
4587.14
4625.96
4661.74
4694.37
4723.78
4749.89
4772.67
4792.07
4808.08
4820.7
4829.94
4835.84
4838.42
4837.75
4833.89
4826.91
4816.91
4803.97
4788.22
4769.75
4748.7
4725.21
4699.42
4671.47
4641.53
4609.77
4576.36
4541.47
4505.27
4467.91
4429.5
4390.08
4349.53
4307.43
4262.75
4213.38
4155.07
4079.51
3970.69
3797.9
3502.54
2973.38
2000.68
369.827
1302.39
15000
15000
15000
15000
15000
15000
15000
15000
15000
15000
15000
15000
15000
15000
14999.9
14999.9
14999.9
14999.9
14999.8
14999.8
14999.7
14999.5
14999.4
14999.2
14999
14998.6
14998.2
14997.7
14997
14996.2
14995.2
14993.9
14992.3
14990.3
14987.8
14984.8
14981.2
14976.8
14971.4
14965
14957.4
14948.3
14937.5
14924.7
14909.8
14892.3
14871.9
14848.3
14821
14789.6
14753.7
14712.8
14666.3
14613.7
14554.6
14488.2
14414.2
14331.8
14240.6
14139.9
14029.4
13908.5
13776.7
13633.8
13479.2
13312.8
13134.4
12943.9
12741.3
12526.5
12299.9
12061.8
11812.4
11552.4
11282.2
11002.8
10714.8
10419.1
10116.9
9809.04
9496.8
9181.32
8863.85
8545.65
8228
7912.16
7599.42
7291
6988.1
6691.86
6403.37
6123.63
5853.55
5593.98
5345.64
5109.16
4885.09
4673.83
4475.72
4290.97
4119.71
3961.95
3817.65
3686.65
3568.73
3463.61
3370.94
3290.32
3221.32
3163.45
3116.22
3079.09
3051.52
3032.99
3022.92
3020.79
3026.04
3038.16
3056.61
3080.92
3110.58
3145.13
3184.12
3227.11
3273.69
3323.46
3376.04
3431.04
3488.13
3546.94
3607.15
3668.44
3730.48
3792.99
3855.65
3918.19
3980.32
4041.77
4102.29
4161.62
4219.51
4275.74
4330.08
4382.33
4432.29
4479.78
4524.63
4566.7
4605.85
4641.97
4674.94
4704.69
4731.14
4754.26
4773.99
4790.33
4803.27
4812.82
4819
4821.87
4821.45
4817.84
4811.08
4801.29
4788.54
4772.96
4754.65
4733.75
4710.39
4684.71
4656.88
4627.04
4595.37
4562.04
4527.23
4491.1
4453.81
4415.48
4376.14
4335.68
4293.67
4249.12
4199.92
4141.87
4066.76
3958.73
3787.37
3494.61
2969.76
2002.47
371.077
1289.38
15000
15000
15000
15000
15000
15000
15000
15000
15000
15000
15000
15000
15000
15000
14999.9
14999.9
14999.9
14999.9
14999.8
14999.8
14999.7
14999.5
14999.4
14999.2
14999
14998.6
14998.2
14997.7
14997
14996.2
14995.2
14993.9
14992.3
14990.3
14987.8
14984.8
14981.2
14976.8
14971.5
14965.1
14957.4
14948.4
14937.6
14924.9
14909.9
14892.4
14872.1
14848.5
14821.3
14789.9
14754.1
14713.2
14666.7
14614.3
14555.2
14488.9
14414.9
14332.6
14241.5
14141
14030.6
13909.8
13778.1
13635.3
13480.8
13314.6
13136.3
12945.9
12743.3
12528.7
12302.2
12064.1
11814.9
11554.9
11284.8
11005.3
10717.3
10421.6
10119.3
9811.4
9499.02
9183.38
8865.71
8547.27
8229.33
7913.18
7600.07
7291.25
6987.91
6691.19
6402.18
6121.88
5851.21
5591.01
5342.01
5104.85
4880.07
4668.08
4469.22
4283.7
4111.65
3953.1
3807.99
3676.18
3557.46
3451.53
3358.05
3276.64
3206.84
3148.19
3100.19
3062.31
3034.01
3014.75
3003.99
3001.17
3005.77
3017.25
3035.1
3058.82
3087.93
3121.95
3160.44
3202.97
3249.11
3298.48
3350.69
3405.36
3462.15
3520.71
3580.7
3641.81
3703.72
3766.12
3828.73
3891.25
3953.41
4014.93
4075.55
4135.01
4193.08
4249.52
4304.11
4356.63
4406.9
4454.72
4499.92
4542.36
4581.89
4618.4
4651.77
4681.93
4708.79
4732.31
4752.44
4769.16
4782.48
4792.39
4798.92
4802.11
4802.01
4798.68
4792.2
4782.66
4770.14
4754.77
4736.65
4715.93
4692.72
4667.19
4639.48
4609.76
4578.2
4544.97
4510.26
4474.23
4437.03
4398.79
4359.54
4319.18
4277.28
4232.87
4183.85
4126.07
4051.39
3944.09
3774.08
3483.95
2964.91
2012.18
372.924
1276.45
15000
15000
15000
15000
15000
15000
15000
15000
15000
15000
15000
15000
15000
15000
14999.9
14999.9
14999.9
14999.9
14999.8
14999.8
14999.7
14999.6
14999.4
14999.2
14999
14998.6
14998.2
14997.7
14997.1
14996.2
14995.2
14993.9
14992.3
14990.3
14987.9
14984.9
14981.2
14976.8
14971.5
14965.1
14957.5
14948.4
14937.7
14925
14910.1
14892.6
14872.3
14848.8
14821.6
14790.3
14754.5
14713.6
14667.3
14614.9
14555.8
14489.7
14415.8
14333.6
14242.6
14142.2
14031.9
13911.2
13779.7
13637
13482.7
13316.6
13138.4
12948.2
12745.7
12531.3
12304.9
12066.9
11817.7
11557.8
11287.7
11008.3
10720.3
10424.6
10122.2
9814.12
9501.6
9185.78
8867.88
8549.17
8230.91
7914.4
7600.88
7291.6
6987.76
6690.5
6400.89
6119.96
5848.62
5587.7
5337.96
5100.02
4874.42
4661.59
4461.86
4275.46
4102.52
3943.05
3797.03
3664.29
3544.63
3437.77
3343.37
3261.04
3190.33
3130.78
3081.89
3043.14
3013.99
2993.9
2982.33
2978.73
2982.56
2993.31
3010.45
3033.49
3061.95
3095.36
3133.27
3175.25
3220.89
3269.78
3321.56
3375.84
3432.28
3490.53
3550.26
3611.15
3672.89
3735.18
3797.71
3860.2
3922.38
3983.96
4044.69
4104.31
4162.58
4219.26
4274.12
4326.95
4377.56
4425.75
4471.35
4514.21
4554.18
4591.13
4624.96
4655.58
4682.91
4706.88
4727.47
4744.65
4758.39
4768.72
4775.66
4779.23
4779.49
4776.5
4770.33
4761.08
4748.83
4733.7
4715.81
4695.29
4672.27
4646.9
4619.35
4589.77
4558.34
4525.24
4490.64
4454.71
4417.62
4379.49
4340.35
4300.1
4258.33
4214.07
4165.25
4107.74
4033.47
3926.87
3758.02
3469.71
2951.96
1990.91
371.936
1266.86
15000
15000
15000
15000
15000
15000
15000
15000
15000
15000
15000
15000
15000
15000
14999.9
14999.9
14999.9
14999.9
14999.8
14999.8
14999.7
14999.6
14999.4
14999.2
14999
14998.6
14998.2
14997.7
14997.1
14996.2
14995.2
14993.9
14992.3
14990.3
14987.9
14984.9
14981.3
14976.9
14971.6
14965.2
14957.6
14948.5
14937.8
14925.1
14910.3
14892.8
14872.6
14849
14821.9
14790.7
14754.9
14714.1
14667.9
14615.5
14556.6
14490.5
14416.7
14334.7
14243.8
14143.5
14033.4
13912.8
13781.5
13638.9
13484.8
13318.8
13140.8
12950.7
12748.4
12534.1
12307.8
12070
11820.8
11561
11291
11011.6
10723.6
10427.8
10125.4
9817.22
9504.54
9188.51
8870.36
8551.35
8232.75
7915.83
7601.87
7292.09
6987.69
6689.81
6399.56
6117.92
5845.82
5584.12
5333.54
5094.72
4868.22
4654.45
4453.76
4266.38
4092.42
3931.94
3784.88
3651.1
3530.4
3422.49
3327.05
3243.68
3171.95
3111.39
3061.5
3021.76
2991.65
2970.62
2958.13
2953.63
2956.6
2966.52
2982.85
3005.12
3032.84
3065.55
3102.79
3144.15
3189.2
3237.56
3288.84
3342.67
3398.7
3456.6
3516.02
3576.66
3638.2
3700.33
3762.76
3825.21
3887.4
3949.04
4009.88
4069.67
4128.15
4185.08
4240.24
4293.41
4344.4
4393
4439.04
4482.36
4522.81
4560.26
4594.6
4625.74
4653.59
4678.08
4699.18
4716.86
4731.1
4741.9
4749.28
4753.29
4753.95
4751.35
4745.54
4736.61
4724.68
4709.83
4692.2
4671.91
4649.1
4623.93
4596.56
4567.14
4535.87
4502.9
4468.43
4432.64
4395.67
4357.66
4318.65
4278.53
4236.91
4192.81
4144.19
4086.96
4013.11
3907.16
3739.36
3452.62
2937.12
1979.06
370.349
1263.69
15000
15000
15000
15000
15000
15000
15000
15000
15000
15000
15000
15000
15000
15000
14999.9
14999.9
14999.9
14999.9
14999.8
14999.8
14999.7
14999.6
14999.4
14999.2
14999
14998.6
14998.2
14997.7
14997.1
14996.2
14995.2
14993.9
14992.3
14990.3
14987.9
14984.9
14981.3
14976.9
14971.6
14965.3
14957.7
14948.7
14937.9
14925.3
14910.4
14893.1
14872.8
14849.4
14822.3
14791.1
14755.4
14714.7
14668.5
14616.3
14557.4
14491.5
14417.8
14335.9
14245.1
14145
14035
13914.6
13783.4
13641
13487.1
13321.3
13143.5
12953.5
12751.4
12537.2
12311.1
12073.4
11824.4
11564.6
11294.7
11015.3
10727.3
10431.5
10128.9
9820.67
9507.83
9191.58
8873.17
8553.83
8234.86
7917.51
7603.05
7292.72
6987.72
6689.19
6398.21
6115.8
5842.89
5580.32
5328.83
5089.06
4861.56
4646.77
4445.02
4256.55
4081.49
3919.89
3771.69
3636.76
3514.91
3405.85
3309.26
3224.74
3151.87
3090.19
3039.19
2998.36
2967.18
2945.1
2931.59
2926.1
2928.11
2937.09
2952.53
2973.93
3000.82
3032.74
3069.24
3109.89
3154.29
3202.03
3252.74
3306.06
3361.63
3419.12
3478.19
3538.53
3599.83
3661.78
3724.09
3786.47
3848.65
3910.35
3971.3
4031.25
4089.95
4147.15
4202.63
4256.17
4307.55
4356.6
4403.11
4446.93
4487.91
4525.91
4560.82
4592.52
4620.94
4646
4667.67
4685.9
4700.68
4712
4719.89
4724.37
4725.49
4723.31
4717.91
4709.36
4697.76
4683.23
4665.89
4645.87
4623.31
4598.36
4571.19
4541.96
4510.86
4478.05
4443.74
4408.09
4371.27
4333.4
4294.53
4254.56
4213.09
4169.17
4120.77
4063.83
3990.41
3885.12
3718.39
3433.39
2921.25
1976.2
369.924
1285.3
15000
15000
15000
15000
15000
15000
15000
15000
15000
15000
15000
15000
15000
15000
15000
14999.9
14999.9
14999.9
14999.8
14999.8
14999.7
14999.6
14999.4
14999.2
14999
14998.6
14998.2
14997.7
14997.1
14996.2
14995.2
14993.9
14992.3
14990.4
14987.9
14985
14981.4
14977
14971.7
14965.4
14957.8
14948.8
14938.1
14925.5
14910.7
14893.3
14873.1
14849.7
14822.7
14791.6
14755.9
14715.3
14669.2
14617.1
14558.4
14492.5
14419
14337.2
14246.6
14146.6
14036.7
13916.5
13785.5
13643.3
13489.5
13324
13146.3
12956.6
12754.6
12540.6
12314.7
12077.1
11828.2
11568.5
11298.7
11019.3
10731.3
10435.5
10132.9
9824.48
9511.46
9194.99
8876.29
8556.62
8237.24
7919.43
7604.45
7293.54
6987.89
6688.65
6396.91
6113.68
5839.89
5576.39
5323.91
5083.12
4854.55
4638.65
4435.76
4246.11
4069.86
3907.04
3757.6
3621.43
3498.33
3388.02
3290.17
3204.4
3130.3
3067.38
3015.17
2973.15
2940.8
2917.57
2902.94
2896.36
2897.3
2905.25
2919.7
2940.15
2966.13
2997.17
3032.84
3072.71
3116.37
3163.43
3213.51
3266.25
3321.3
3378.32
3436.99
3496.99
3558.01
3619.74
3681.9
3744.19
3806.35
3868.08
3929.14
3989.25
4048.17
4105.65
4161.46
4215.38
4267.19
4316.7
4363.72
4408.09
4449.63
4488.22
4523.72
4556.04
4585.07
4610.76
4633.04
4651.87
4667.24
4679.13
4687.57
4692.58
4694.2
4692.49
4687.53
4679.39
4668.18
4654
4636.99
4617.26
4594.97
4570.28
4543.33
4514.32
4483.41
4450.79
4416.65
4381.16
4344.5
4306.79
4268.08
4228.27
4186.97
4143.25
4095.08
4038.46
3965.48
3860.9
3695.38
3412.78
2906.1
1973.73
369.03
1319.51
15000
15000
15000
15000
15000
15000
15000
15000
15000
15000
15000
15000
15000
15000
15000
14999.9
14999.9
14999.9
14999.8
14999.8
14999.7
14999.6
14999.4
14999.2
14999
14998.7
14998.2
14997.7
14997.1
14996.3
14995.2
14993.9
14992.4
14990.4
14988
14985
14981.4
14977.1
14971.8
14965.5
14957.9
14948.9
14938.2
14925.7
14910.9
14893.6
14873.4
14850.1
14823.1
14792
14756.5
14716
14670
14617.9
14559.3
14493.6
14420.2
14338.6
14248.1
14148.3
14038.6
13918.6
13787.8
13645.8
13492.2
13326.8
13149.4
12959.9
12758.1
12544.3
12318.5
12081.1
11832.3
11572.8
11303
11023.7
10735.7
10439.8
10137.1
9828.63
9515.43
9198.73
8879.74
8559.71
8239.92
7921.63
7606.1
7294.57
6988.24
6688.26
6395.71
6111.61
5836.88
5572.39
5318.87
5076.98
4847.28
4630.2
4426.09
4235.19
4057.66
3893.53
3742.78
3605.27
3480.83
3369.17
3269.97
3182.86
3107.42
3043.18
2989.66
2946.35
2912.73
2888.26
2872.41
2864.64
2864.43
2871.26
2884.62
2904.03
2929.01
2959.1
2993.86
3032.86
3075.71
3122.02
3171.4
3223.5
3277.96
3334.47
3392.68
3452.28
3512.98
3574.45
3636.43
3698.61
3760.71
3822.47
3883.61
3943.88
4003.01
4060.77
4116.92
4171.23
4223.49
4273.49
4321.04
4365.97
4408.11
4447.32
4483.46
4516.43
4546.13
4572.48
4595.41
4614.89
4630.89
4643.41
4652.44
4658.02
4660.18
4658.99
4654.5
4646.82
4636.02
4622.24
4605.58
4586.18
4564.2
4539.78
4513.09
4484.31
4453.62
4421.21
4387.26
4351.96
4315.47
4277.94
4239.4
4199.77
4158.67
4115.15
4067.24
4010.94
3938.42
3834.53
3670.15
3389.31
2884.61
1948.88
365.078
1385.59
15000
15000
15000
15000
15000
15000
15000
15000
15000
15000
15000
15000
15000
15000
15000
14999.9
14999.9
14999.9
14999.8
14999.8
14999.7
14999.6
14999.4
14999.2
14999
14998.7
14998.3
14997.7
14997.1
14996.3
14995.2
14994
14992.4
14990.4
14988
14985.1
14981.5
14977.1
14971.9
14965.6
14958
14949.1
14938.4
14925.9
14911.1
14893.9
14873.8
14850.5
14823.5
14792.6
14757.1
14716.7
14670.8
14618.8
14560.4
14494.8
14421.5
14340
14249.7
14150.1
14040.7
13920.8
13790.2
13648.4
13495.1
13329.9
13152.7
12963.4
12761.8
12548.2
12322.6
12085.3
11836.7
11577.3
11307.6
11028.4
10740.4
10444.5
10141.8
9833.12
9519.74
9202.8
8883.51
8563.12
8242.89
7924.1
7608.01
7295.84
6988.81
6688.05
6394.65
6109.63
5833.94
5568.4
5313.79
5070.75
4839.85
4621.52
4416.13
4223.91
4045.03
3879.52
3727.37
3588.45
3462.58
3349.48
3248.86
3160.32
3083.45
3017.79
2962.88
2918.19
2883.2
2857.4
2840.24
2831.19
2829.74
2835.36
2847.56
2865.84
2889.73
2918.78
2952.55
2990.62
3032.59
3078.06
3126.67
3178.06
3231.89
3287.81
3345.51
3404.67
3465
3526.18
3587.92
3649.95
3711.98
3773.73
3834.94
3895.35
3954.7
4012.73
4069.22
4123.93
4176.64
4227.14
4275.24
4320.76
4363.52
4403.38
4440.2
4473.85
4504.25
4531.29
4554.92
4575.09
4591.77
4604.94
4614.61
4620.8
4623.55
4622.91
4618.94
4611.75
4601.41
4588.04
4571.78
4552.74
4531.09
4506.98
4480.57
4452.05
4421.6
4389.42
4355.68
4320.59
4284.3
4246.96
4208.61
4169.18
4128.28
4084.99
4037.34
3981.38
3909.32
3806.12
3642.75
3363.42
2860.54
1924.27
360.565
1396.7
15000
15000
15000
15000
15000
15000
15000
15000
15000
15000
15000
15000
15000
15000
15000
14999.9
14999.9
14999.9
14999.8
14999.8
14999.7
14999.6
14999.4
14999.2
14999
14998.7
14998.3
14997.7
14997.1
14996.3
14995.3
14994
14992.4
14990.4
14988
14985.1
14981.5
14977.2
14972
14965.7
14958.2
14949.2
14938.6
14926.1
14911.4
14894.2
14874.1
14850.9
14824
14793.1
14757.8
14717.4
14671.6
14619.8
14561.5
14496
14422.9
14341.6
14251.5
14152
14042.8
13923.2
13792.8
13651.2
13498.1
13333.1
13156.2
12967.1
12765.8
12552.3
12326.9
12089.8
11841.4
11582.1
11312.5
11033.4
10745.4
10449.5
10146.7
9837.93
9524.38
9207.2
8887.61
8566.85
8246.19
7926.89
7610.21
7297.39
6989.62
6688.05
6393.78
6107.82
5831.11
5564.5
5308.75
5064.52
4832.37
4612.74
4406.01
4212.41
4032.11
3865.16
3711.54
3571.14
3443.76
3329.16
3227.02
3136.97
3058.59
2991.45
2935.04
2888.89
2852.46
2825.24
2806.69
2796.28
2793.5
2797.83
2808.77
2825.84
2848.57
2876.51
2909.21
2946.26
2987.27
3031.85
3079.62
3130.23
3183.35
3238.63
3295.76
3354.43
3414.33
3475.17
3536.65
3598.49
3660.41
3722.13
3783.39
3843.91
3903.45
3961.75
4018.57
4073.68
4126.85
4177.86
4226.52
4272.64
4316.05
4356.58
4394.09
4428.46
4459.58
4487.36
4511.72
4532.62
4550.01
4563.87
4574.22
4581.06
4584.42
4584.37
4580.97
4574.29
4564.45
4551.54
4535.69
4517.05
4495.76
4471.98
4445.89
4417.65
4387.47
4355.53
4322.04
4287.16
4251.09
4213.96
4175.83
4136.61
4095.93
4052.88
4005.51
3949.89
3878.3
3775.76
3613.37
3335.4
2834.37
1901.17
357.617
1401.85
15000
15000
15000
15000
15000
15000
15000
15000
15000
15000
15000
15000
15000
15000
15000
14999.9
14999.9
14999.9
14999.8
14999.8
14999.7
14999.6
14999.4
14999.2
14999
14998.7
14998.3
14997.8
14997.1
14996.3
14995.3
14994
14992.4
14990.5
14988.1
14985.2
14981.6
14977.3
14972
14965.8
14958.3
14949.4
14938.8
14926.3
14911.6
14894.5
14874.5
14851.3
14824.5
14793.7
14758.4
14718.2
14672.5
14620.8
14562.6
14497.3
14424.4
14343.2
14253.3
14154.1
14045
13925.6
13795.5
13654.1
13501.2
13336.5
13159.8
12970.9
12769.9
12556.7
12331.5
12094.6
11846.3
11587.2
11317.7
11038.7
10750.7
10454.8
10151.9
9843.08
9529.35
9211.94
8892.04
8570.91
8249.8
7929.99
7612.71
7299.22
6990.71
6688.32
6393.16
6106.23
5828.48
5560.76
5303.84
5058.37
4824.93
4603.96
4395.84
4200.81
4019.04
3850.59
3695.44
3553.49
3424.55
3308.38
3204.65
3113.02
3033.07
2964.35
2906.39
2858.7
2820.75
2792.03
2772
2760.16
2755.97
2758.93
2768.55
2784.33
2805.81
2832.55
2864.11
2900.08
2940.06
2983.66
3030.53
3080.3
3132.64
3187.22
3243.73
3301.85
3361.27
3421.72
3482.89
3544.49
3606.26
3667.92
3729.19
3789.81
3849.52
3908.07
3965.22
4020.71
4074.33
4125.85
4175.08
4221.81
4265.87
4307.09
4345.32
4380.42
4412.3
4440.83
4465.96
4487.61
4505.74
4520.34
4531.39
4538.91
4542.94
4543.51
4540.7
4534.58
4525.26
4512.84
4497.45
4479.23
4458.33
4434.91
4409.15
4381.23
4351.34
4319.68
4286.44
4251.81
4215.98
4179.07
4141.17
4102.17
4061.73
4018.94
3971.86
3916.6
3845.49
3743.63
3582.25
3305.87
2807.8
1885.02
355.502
1405.66
15000
15000
15000
15000
15000
15000
15000
15000
15000
15000
15000
15000
15000
15000
15000
14999.9
14999.9
14999.9
14999.8
14999.8
14999.7
14999.6
14999.4
14999.2
14999
14998.7
14998.3
14997.8
14997.1
14996.3
14995.3
14994
14992.5
14990.5
14988.1
14985.2
14981.6
14977.3
14972.1
14965.9
14958.4
14949.5
14939
14926.5
14911.9
14894.8
14874.9
14851.7
14825
14794.3
14759.1
14719
14673.4
14621.9
14563.8
14498.7
14425.9
14344.9
14255.2
14156.2
14047.3
13928.2
13798.3
13657.2
13504.5
13340.1
13163.6
12975
12774.2
12561.3
12336.3
12099.6
11851.5
11592.6
11323.2
11044.2
10756.4
10460.5
10157.5
9848.54
9534.65
9217
8896.81
8575.31
8253.75
7933.42
7615.55
7301.38
6992.11
6688.89
6392.81
6104.9
5826.09
5557.24
5299.12
5052.39
4817.62
4595.28
4385.73
4189.23
4005.95
3835.95
3679.23
3535.68
3405.12
3287.31
3181.95
3088.68
3007.09
2936.73
2877.15
2827.84
2788.31
2758.01
2736.45
2723.09
2717.42
2718.94
2727.15
2741.57
2761.74
2787.21
2817.56
2852.37
2891.24
2933.8
2979.69
3028.56
3080.06
3133.88
3189.7
3247.21
3306.11
3366.11
3426.91
3488.25
3549.83
3611.38
3672.63
3733.31
3793.17
3851.95
3909.39
3965.26
4019.32
4071.35
4121.14
4168.48
4213.2
4255.11
4294.07
4329.93
4362.57
4391.89
4417.8
4440.23
4459.13
4474.49
4486.28
4494.52
4499.23
4500.46
4498.27
4492.74
4483.98
4472.08
4457.17
4439.41
4418.93
4395.9
4370.5
4342.92
4313.34
4281.97
4249.01
4214.65
4179.07
4142.41
4104.75
4066
4025.81
3983.29
3936.51
3881.63
3811.01
3709.87
3549.65
3275.3
2781.13
1863.95
353.428
1411.54
15000
15000
15000
15000
15000
15000
15000
15000
15000
15000
15000
15000
15000
15000
15000
14999.9
14999.9
14999.9
14999.8
14999.8
14999.7
14999.6
14999.4
14999.2
14999
14998.7
14998.3
14997.8
14997.1
14996.3
14995.3
14994
14992.5
14990.5
14988.2
14985.3
14981.7
14977.4
14972.2
14966
14958.6
14949.7
14939.2
14926.8
14912.2
14895.1
14875.3
14852.2
14825.6
14795
14759.9
14719.9
14674.4
14623
14565.1
14500.1
14427.5
14346.7
14257.2
14158.4
14049.8
13930.9
13801.2
13660.3
13508
13343.8
13167.6
12979.3
12778.7
12566
12341.3
12104.8
11857
11598.2
11329
11050.1
10762.3
10466.4
10163.4
9854.32
9540.27
9222.4
8901.91
8580.04
8258.05
7937.19
7618.72
7303.88
6993.85
6689.79
6392.8
6103.88
5824
5554.01
5294.67
5046.66
4810.55
4586.8
4375.79
4177.79
3992.96
3821.38
3663.05
3517.85
3385.63
3266.15
3159.1
3064.13
2980.84
2908.8
2847.54
2796.56
2755.37
2723.45
2700.28
2685.34
2678.12
2678.13
2684.87
2697.86
2716.64
2740.78
2769.84
2803.42
2841.12
2882.58
2927.42
2975.32
3025.92
3078.91
3133.98
3190.82
3249.14
3308.63
3369.03
3430.03
3491.38
3552.78
3613.97
3674.68
3734.66
3793.63
3851.35
3907.57
3962.05
4014.58
4064.92
4112.87
4158.24
4200.86
4240.55
4277.17
4310.59
4340.7
4367.41
4390.65
4410.35
4426.48
4439.04
4448.02
4453.44
4455.36
4453.83
4448.92
4440.74
4429.39
4415
4397.71
4377.67
4355.06
4330.05
4302.83
4273.59
4242.54
4209.88
4175.8
4140.5
4104.1
4066.7
4028.21
3988.29
3946.05
3899.59
3845.09
3775
3674.64
3515.66
3243.42
2752.39
1837.83
352.189
1410.98
15000
15000
15000
15000
15000
15000
15000
15000
15000
15000
15000
15000
15000
15000
15000
14999.9
14999.9
14999.9
14999.8
14999.8
14999.7
14999.6
14999.4
14999.2
14999
14998.7
14998.3
14997.8
14997.1
14996.3
14995.3
14994.1
14992.5
14990.6
14988.2
14985.3
14981.8
14977.5
14972.3
14966.1
14958.7
14949.9
14939.4
14927
14912.5
14895.5
14875.7
14852.7
14826.2
14795.6
14760.7
14720.7
14675.4
14624.1
14566.4
14501.6
14429.2
14348.6
14259.3
14160.7
14052.3
13933.6
13804.2
13663.6
13511.6
13347.7
13171.8
12983.7
12783.4
12571
12346.5
12110.3
11862.6
11604
11335
11056.2
10768.4
10472.6
10169.6
9860.4
9546.2
9228.12
8907.34
8585.12
8262.69
7941.32
7622.25
7306.73
6995.95
6691.05
6393.13
6103.22
5822.26
5551.11
5290.55
5041.24
4803.77
4578.61
4366.13
4166.6
3980.2
3807.01
3647.03
3500.16
3366.25
3245.05
3136.27
3039.57
2954.54
2880.76
2817.76
2765.07
2722.17
2688.56
2663.73
2647.15
2638.33
2636.77
2641.97
2653.46
2670.8
2693.53
2721.25
2753.53
2790
2830.28
2874.02
2920.88
2970.51
3022.62
3076.88
3132.99
3190.66
3249.6
3309.53
3370.16
3431.21
3492.42
3553.51
3614.21
3674.25
3733.39
3791.35
3847.9
3902.78
3955.78
4006.66
4055.21
4101.23
4144.53
4184.96
4222.34
4256.55
4287.47
4314.99
4339.04
4359.55
4376.49
4389.83
4399.57
4405.74
4408.37
4407.51
4403.25
4395.68
4384.9
4371.05
4354.27
4334.71
4312.54
4287.94
4261.1
4232.23
4201.51
4169.17
4135.4
4100.39
4064.28
4027.15
3988.93
3949.29
3907.34
3861.23
3807.14
3737.6
3638.1
3480.6
3211.24
2726.71
1829.9
351.938
1409.7
15000
15000
15000
15000
15000
15000
15000
15000
15000
15000
15000
15000
15000
15000
15000
14999.9
14999.9
14999.9
14999.8
14999.8
14999.7
14999.6
14999.4
14999.2
14999
14998.7
14998.3
14997.8
14997.2
14996.4
14995.3
14994.1
14992.5
14990.6
14988.3
14985.4
14981.9
14977.6
14972.4
14966.3
14958.9
14950.1
14939.6
14927.3
14912.8
14895.9
14876.1
14853.2
14826.8
14796.3
14761.5
14721.7
14676.5
14625.3
14567.7
14503.1
14430.9
14350.5
14261.4
14163.1
14054.9
13936.5
13807.4
13667.1
13515.3
13351.7
13176.1
12988.3
12788.3
12576.1
12351.9
12115.9
11868.5
11610.1
11341.2
11062.5
10774.9
10479.1
10176
9866.79
9552.45
9234.16
8913.11
8590.53
8267.68
7945.8
7626.15
7309.96
6998.42
6692.69
6393.85
6102.94
5820.9
5548.6
5286.81
5036.2
4797.37
4570.78
4356.81
4155.75
3967.77
3792.95
3631.31
3482.74
3347.11
3224.17
3113.63
3015.16
2928.36
2852.8
2788.04
2733.58
2688.93
2653.59
2627.04
2608.78
2598.3
2595.11
2598.72
2608.66
2624.49
2645.77
2672.07
2703
2738.17
2777.22
2819.79
2865.54
2914.15
2965.3
3018.69
3074.01
3130.98
3189.31
3248.71
3308.91
3369.62
3430.58
3491.52
3552.16
3612.24
3671.5
3729.67
3786.51
3841.77
3895.21
3946.6
3995.72
4042.38
4086.37
4127.52
4165.66
4200.66
4232.38
4260.72
4285.59
4306.93
4324.68
4338.82
4349.35
4356.27
4359.63
4359.47
4355.88
4348.94
4338.77
4325.49
4309.23
4290.17
4268.47
4244.3
4217.87
4189.38
4159.02
4127.02
4093.57
4058.87
4023.06
3986.22
3948.29
3908.94
3867.3
3821.53
3767.87
3698.94
3600.38
3444.55
3178.34
2699.81
1813.49
351.83
1421.02
15000
15000
15000
15000
15000
15000
15000
15000
15000
15000
15000
15000
15000
15000
15000
14999.9
14999.9
14999.9
14999.8
14999.8
14999.7
14999.6
14999.4
14999.2
14999
14998.7
14998.3
14997.8
14997.2
14996.4
14995.4
14994.1
14992.6
14990.7
14988.3
14985.4
14981.9
14977.7
14972.6
14966.4
14959
14950.3
14939.9
14927.6
14913.2
14896.3
14876.6
14853.8
14827.4
14797.1
14762.3
14722.6
14677.6
14626.6
14569.2
14504.7
14432.7
14352.5
14263.6
14165.5
14057.7
13939.5
13810.6
13670.6
13519.1
13355.8
13180.5
12993
12793.3
12581.5
12357.5
12121.8
11874.6
11616.4
11347.7
11069.2
10781.6
10485.8
10182.8
9873.47
9559
9240.52
8919.21
8596.29
8273.02
7950.65
7630.42
7313.57
7001.29
6694.73
6394.98
6103.08
5819.96
5546.51
5283.5
5031.6
4791.4
4563.38
4347.93
4145.33
3955.75
3779.3
3615.99
3465.72
3328.34
3203.64
3091.33
2991.07
2902.47
2825.11
2758.55
2702.29
2655.86
2618.75
2590.45
2570.46
2558.27
2553.41
2555.38
2563.72
2577.99
2597.75
2622.59
2652.11
2685.92
2723.68
2765.02
2809.61
2857.13
2907.27
2959.73
3014.2
3070.41
3128.06
3186.88
3246.59
3306.91
3367.57
3428.3
3488.83
3548.9
3608.23
3666.57
3723.67
3779.26
3833.11
3884.99
3934.67
3981.93
4026.59
4068.45
4107.34
4143.11
4175.64
4204.8
4230.5
4252.66
4271.23
4286.18
4297.5
4305.2
4309.31
4309.87
4306.97
4300.69
4291.13
4278.44
4262.74
4244.19
4222.97
4199.27
4173.26
4145.17
4115.2
4083.55
4050.45
4016.07
3980.57
3944.04
3906.41
3867.36
3826.05
3780.64
3727.43
3659.14
3561.6
3407.59
3144.87
2673.88
1807.3
352.072