<?xml version="1.0"?>
<VTKFile type="ImageData" version="0.1" byte_order="LittleEndian">
  <ImageData Origin="0 0 0" Spacing="1e-05 1e-05 1e-05" WholeExtent="0 191 0 191 0 0">
    <Piece Extent="0 191 0 191 0 0">
      <CellData Scalars="T">
        <DataArray type="Float32" Name="T" format="ascii" NumberOfComponents="1">
556.81
15000
15000
15000
15000
15000
15000
15000
15000
15000
15000
15000
15000
15000
15000
15000
15000
15000
15000
14999.9
14999.9
14999.9
14999.8
14999.8
14999.7
14999.6
14999.5
14999.3
14999.1
14998.9
14998.5
14998.1
14997.6
14996.9
14996.1
14995.1
14993.8
14992.3
14990.4
14988.1
14985.3
14981.9
14977.8
14973
14967.1
14960.2
14952
14942.3
14930.9
14917.6
14902.1
14884
14863.2
14839.2
14811.7
14780.3
14744.6
14704
14658.3
14606.8
14549.1
14484.7
14413.1
14333.8
14246.3
14150.1
14044.7
13929.7
13804.7
13669.4
13523.3
13366.3
13198.3
13018.9
12828.3
12626.4
12413.4
12189.5
11955
11710.3
11455.9
11192.4
10920.5
10640.9
10354.5
10062.1
9764.92
9463.8
9159.89
8854.3
8548.17
8242.65
7938.91
7638.07
7341.27
7049.58
6764.05
6485.66
6215.34
5953.92
5702.19
5460.84
5230.46
5011.58
4804.6
4609.87
4427.63
4258.02
4101.12
3956.9
3825.29
3706.13
3599.19
3504.2
3420.82
3348.69
3287.38
3236.47
3195.47
3163.92
3141.31
3127.14
3120.9
3122.08
3130.17
3144.69
3165.15
3191.06
3221.98
3257.43
3297
3340.27
3386.81
3436.24
3488.19
3542.28
3598.16
3655.49
3713.94
3773.2
3832.94
3892.88
3952.72
4012.2
4071.04
4128.98
4185.78
4241.21
4295.04
4347.06
4397.08
4444.9
4490.36
4533.31
4573.59
4611.09
4645.69
4677.3
4705.83
4731.23
4753.44
4772.43
4788.18
4800.68
4809.95
4816
4818.88
4818.62
4815.3
4808.98
4799.74
4787.68
4772.89
4755.5
4735.6
4713.33
4688.79
4662.09
4633.28
4602.35
4569.1
4533.03
4493
4446.66
4389.3
4311.66
4195.57
4005.24
3669.44
3043.08
1817.34
323.302
1400.27
15000
15000
15000
15000
15000
15000
15000
15000
15000
15000
15000
15000
15000
15000
15000
15000
15000
15000
14999.9
14999.9
14999.9
14999.8
14999.8
14999.7
14999.6
14999.5
14999.3
14999.1
14998.9
14998.5
14998.1
14997.6
14996.9
14996.1
14995.1
14993.8
14992.3
14990.4
14988.1
14985.3
14981.9
14977.8
14973
14967.1
14960.2
14952
14942.3
14930.9
14917.6
14902.1
14884.1
14863.3
14839.3
14811.8
14780.4
14744.6
14704.1
14658.4
14606.9
14549.2
14484.8
14413.3
14334
14246.4
14150.2
14044.9
13929.9
13804.9
13669.6
13523.6
13366.6
13198.5
13019.2
12828.6
12626.7
12413.7
12189.9
11955.4
11710.7
11456.3
11192.8
10920.8
10641.2
10354.8
10062.5
9765.26
9464.12
9160.18
8854.55
8548.38
8242.82
7939.02
7638.12
7341.25
7049.5
6763.89
6485.41
6214.99
5953.48
5701.66
5460.2
5229.71
5010.71
4803.62
4608.77
4426.4
4256.67
4099.64
3955.3
3823.56
3704.27
3597.2
3502.08
3418.57
3346.31
3284.87
3233.84
3192.72
3161.05
3138.32
3124.04
3117.68
3118.76
3126.75
3141.17
3161.53
3187.36
3218.18
3253.56
3293.05
3336.24
3382.72
3432.1
3483.99
3538.03
3593.87
3651.17
3709.59
3768.82
3828.55
3888.47
3948.32
4007.8
4066.64
4124.6
4181.42
4236.88
4290.74
4342.8
4392.85
4440.72
4486.24
4529.23
4569.57
4607.13
4641.79
4673.46
4702.05
4727.51
4749.78
4768.83
4784.64
4797.2
4806.53
4812.64
4815.56
4815.36
4812.08
4805.81
4796.61
4784.59
4769.84
4752.48
4732.62
4710.37
4685.86
4659.18
4630.4
4599.49
4566.26
4530.22
4490.24
4443.98
4386.81
4309.62
4194.75
4008.05
3684.09
3100.05
2040.4
391.02
1386.34
15000
15000
15000
15000
15000
15000
15000
15000
15000
15000
15000
15000
15000
15000
15000
15000
15000
15000
14999.9
14999.9
14999.9
14999.8
14999.8
14999.7
14999.6
14999.5
14999.3
14999.1
14998.9
14998.5
14998.1
14997.6
14996.9
14996.1
14995.1
14993.8
14992.3
14990.4
14988.1
14985.3
14981.9
14977.9
14973
14967.1
14960.2
14952
14942.3
14930.9
14917.6
14902.1
14884.1
14863.3
14839.4
14811.9
14780.5
14744.7
14704.2
14658.5
14607.1
14549.4
14485.1
14413.5
14334.2
14246.7
14150.6
14045.2
13930.3
13805.4
13670.1
13524.1
13367.2
13199.1
13019.8
12829.2
12627.4
12414.4
12190.6
11956.1
11711.4
11457
11193.6
10921.6
10642
10355.6
10063.2
9765.94
9464.75
9160.75
8855.05
8548.8
8243.14
7939.24
7638.22
7341.22
7049.32
6763.56
6484.92
6214.32
5952.62
5700.59
5458.92
5228.22
5009
4801.67
4606.59
4423.97
4253.99
4096.7
3952.11
3820.11
3700.56
3593.23
3497.85
3414.09
3341.57
3279.89
3228.6
3187.24
3155.33
3132.37
3117.86
3111.28
3112.14
3119.93
3134.15
3154.32
3179.97
3210.62
3245.84
3285.18
3328.23
3374.58
3423.83
3475.61
3529.56
3585.32
3642.54
3700.91
3760.09
3819.78
3879.69
3939.53
3999.01
4057.87
4115.86
4172.73
4228.23
4282.16
4334.29
4384.43
4432.39
4478
4521.1
4561.55
4599.22
4634
4665.79
4694.51
4720.09
4742.49
4761.66
4777.59
4790.27
4799.7
4805.92
4808.96
4808.85
4805.67
4799.48
4790.37
4778.42
4763.75
4746.45
4726.65
4704.47
4680.01
4653.38
4624.64
4593.78
4560.6
4524.62
4484.72
4438.6
4381.72
4305.17
4191.8
4008.78
3693.68
3129.04
2096.3
389.93
1380.98
15000
15000
15000
15000
15000
15000
15000
15000
15000
15000
15000
15000
15000
15000
15000
15000
15000
15000
14999.9
14999.9
14999.9
14999.8
14999.8
14999.7
14999.6
14999.5
14999.3
14999.1
14998.9
14998.5
14998.1
14997.6
14996.9
14996.1
14995.1
14993.9
14992.3
14990.4
14988.1
14985.3
14981.9
14977.9
14973
14967.2
14960.2
14952
14942.4
14931
14917.7
14902.2
14884.2
14863.4
14839.5
14812
14780.6
14744.9
14704.4
14658.7
14607.3
14549.7
14485.4
14413.9
14334.6
14247.2
14151.1
14045.8
13930.9
13806
13670.7
13524.8
13368
13200
13020.7
12830.2
12628.4
12415.5
12191.7
11957.2
11712.6
11458.2
11194.7
10922.8
10643.2
10356.7
10064.3
9766.95
9465.7
9161.61
8855.81
8549.43
8243.63
7939.57
7638.38
7341.19
7049.07
6763.08
6484.19
6213.33
5951.35
5699.02
5457.04
5226.02
5006.46
4798.79
4603.34
4420.36
4250.01
4092.34
3947.36
3814.98
3695.05
3587.33
3491.56
3407.42
3334.52
3272.46
3220.8
3179.08
3146.81
3123.51
3108.65
3101.75
3102.29
3109.77
3123.69
3143.58
3168.95
3199.35
3234.32
3273.44
3316.27
3362.43
3411.5
3463.12
3516.93
3572.55
3629.67
3687.95
3747.06
3806.7
3866.58
3926.4
3985.89
4044.78
4102.81
4159.73
4215.32
4269.33
4321.57
4371.83
4419.93
4465.68
4508.94
4549.55
4587.4
4622.35
4654.32
4683.23
4708.99
4731.57
4750.93
4767.03
4779.89
4789.5
4795.88
4799.07
4799.11
4796.07
4790.02
4781.03
4769.2
4754.64
4737.44
4717.73
4695.63
4671.25
4644.7
4616.03
4585.23
4552.13
4516.23
4476.44
4430.5
4373.93
4298.01
4185.94
4005.65
3696.2
3142.69
2129.8
390.79
1391.23
15000
15000
15000
15000
15000
15000
15000
15000
15000
15000
15000
15000
15000
15000
15000
15000
15000
15000
14999.9
14999.9
14999.9
14999.8
14999.8
14999.7
14999.6
14999.5
14999.3
14999.1
14998.9
14998.5
14998.1
14997.6
14996.9
14996.1
14995.1
14993.9
14992.3
14990.4
14988.1
14985.3
14982
14977.9
14973
14967.2
14960.3
14952.1
14942.4
14931.1
14917.8
14902.3
14884.3
14863.5
14839.6
14812.2
14780.8
14745.2
14704.7
14659
14607.6
14550.1
14485.8
14414.3
14335.2
14247.8
14151.7
14046.5
13931.7
13806.8
13671.7
13525.8
13369
13201.1
13021.9
12831.5
12629.7
12416.9
12193.1
11958.7
11714.1
11459.7
11196.2
10924.3
10644.7
10358.2
10065.7
9768.31
9466.96
9162.76
8856.82
8550.28
8244.3
7940.03
7638.61
7341.16
7048.77
6762.47
6483.25
6212.04
5949.69
5696.97
5454.58
5223.13
5003.12
4795
4599.08
4415.62
4244.77
4086.61
3941.13
3808.24
3687.79
3579.56
3483.29
3398.63
3325.23
3262.67
3210.52
3168.32
3135.58
3111.81
3096.5
3089.16
3089.27
3096.34
3109.88
3129.38
3154.4
3184.45
3219.1
3257.91
3300.46
3346.35
3395.19
3446.59
3500.2
3555.66
3612.63
3670.79
3729.81
3789.38
3849.21
3909.01
3968.51
4027.42
4085.51
4142.51
4198.19
4252.33
4304.71
4355.13
4403.4
4449.34
4492.81
4533.64
4571.7
4606.89
4639.1
4668.25
4694.26
4717.08
4736.68
4753.02
4766.11
4775.94
4782.54
4785.94
4786.18
4783.33
4777.45
4768.63
4756.96
4742.53
4725.47
4705.89
4683.9
4659.63
4633.17
4604.6
4573.89
4540.88
4505.08
4465.42
4419.67
4363.4
4288.02
4176.96
3998.48
3692.05
3142.44
2128.4
386.262
1449.31
15000
15000
15000
15000
15000
15000
15000
15000
15000
15000
15000
15000
15000
15000
15000
15000
15000
15000
14999.9
14999.9
14999.9
14999.8
14999.8
14999.7
14999.6
14999.5
14999.3
14999.1
14998.9
14998.5
14998.1
14997.6
14996.9
14996.1
14995.1
14993.9
14992.3
14990.4
14988.1
14985.4
14982
14977.9
14973.1
14967.2
14960.3
14952.1
14942.5
14931.1
14917.9
14902.4
14884.5
14863.7
14839.8
14812.4
14781.1
14745.4
14705
14659.4
14608.1
14550.5
14486.3
14414.9
14335.8
14248.5
14152.5
14047.4
13932.6
13807.9
13672.8
13527
13370.3
13202.5
13023.4
12833
12631.4
12418.6
12194.9
11960.5
11715.9
11461.6
11198.2
10926.2
10646.6
10360
10067.5
9770
9468.54
9164.19
8858.09
8551.36
8245.15
7940.63
7638.92
7341.16
7048.42
6761.74
6482.13
6210.49
5947.68
5694.48
5451.59
5219.6
4999.05
4790.36
4593.86
4409.8
4238.35
4079.57
3933.46
3799.95
3678.86
3570.01
3473.1
3387.81
3313.79
3250.61
3197.86
3155.05
3121.72
3097.38
3081.51
3073.62
3073.21
3079.77
3092.81
3111.85
3136.41
3166.03
3200.28
3238.71
3280.91
3326.47
3375.01
3426.14
3479.5
3534.75
3591.53
3649.53
3708.43
3767.91
3827.68
3887.46
3946.95
4005.9
4064.05
4121.14
4176.94
4231.23
4283.78
4334.39
4382.87
4429.05
4472.77
4513.86
4552.21
4587.68
4620.19
4649.63
4675.94
4699.06
4718.96
4735.59
4748.97
4759.08
4765.95
4769.6
4770.1
4767.48
4761.82
4753.21
4741.73
4727.48
4710.59
4691.16
4669.32
4645.18
4618.85
4590.39
4559.8
4526.9
4491.22
4451.7
4406.13
4350.15
4275.22
4164.89
3987.53
3682.46
3133.22
2116.12
382.304
1468.01
15000
15000
15000
15000
15000
15000
15000
15000
15000
15000
15000
15000
15000
15000
15000
15000
15000
15000
14999.9
14999.9
14999.9
14999.8
14999.8
14999.7
14999.6
14999.5
14999.3
14999.1
14998.9
14998.5
14998.1
14997.6
14997
14996.1
14995.1
14993.9
14992.3
14990.5
14988.2
14985.4
14982
14978
14973.1
14967.3
14960.4
14952.2
14942.6
14931.2
14918
14902.5
14884.6
14863.9
14840
14812.6
14781.4
14745.8
14705.4
14659.8
14608.6
14551.1
14487
14415.6
14336.6
14249.4
14153.5
14048.4
13933.8
13809.1
13674.1
13528.5
13371.9
13204.1
13025.1
12834.9
12633.3
12420.6
12197
11962.7
11718.2
11463.9
11200.4
10928.5
10648.8
10362.2
10069.6
9772.02
9470.42
9165.92
8859.62
8552.66
8246.19
7941.37
7639.33
7341.19
7048.05
6760.94
6480.85
6208.7
5945.35
5691.59
5448.1
5215.49
4994.3
4784.94
4587.75
4402.99
4230.82
4071.31
3924.46
3790.2
3668.37
3558.76
3461.1
3375.07
3300.3
3236.4
3182.91
3139.4
3105.37
3080.34
3063.81
3055.27
3054.22
3060.17
3072.62
3091.1
3115.12
3144.24
3178
3215.97
3257.74
3302.91
3351.08
3401.88
3454.95
3509.94
3566.5
3624.31
3683.05
3742.42
3802.12
3861.85
3921.34
3980.33
4038.54
4095.74
4151.67
4206.12
4258.87
4309.71
4358.44
4404.9
4448.9
4490.31
4528.98
4564.79
4597.64
4627.44
4654.11
4677.58
4697.83
4714.82
4728.53
4738.97
4746.16
4750.13
4750.91
4748.57
4743.18
4734.81
4723.56
4709.54
4692.84
4673.6
4651.93
4627.95
4601.77
4573.45
4542.99
4510.23
4474.69
4435.32
4389.95
4334.23
4259.68
4149.89
3973.26
3668.85
3118.72
2092.55
377.62
1540.04
15000
15000
15000
15000
15000
15000
15000
15000
15000
15000
15000
15000
15000
15000
15000
15000
15000
15000
14999.9
14999.9
14999.9
14999.8
14999.8
14999.7
14999.6
14999.5
14999.3
14999.1
14998.9
14998.5
14998.1
14997.6
14997
14996.1
14995.1
14993.9
14992.4
14990.5
14988.2
14985.4
14982
14978
14973.1
14967.4
14960.5
14952.3
14942.7
14931.4
14918.1
14902.7
14884.8
14864.1
14840.3
14812.9
14781.7
14746.2
14705.8
14660.3
14609.1
14551.7
14487.7
14416.4
14337.5
14250.3
14154.5
14049.6
13935.1
13810.5
13675.7
13530.1
13373.6
13206
13027.2
12837
12635.5
12422.9
12199.4
11965.2
11720.7
11466.5
11203.1
10931.1
10651.4
10364.8
10072.1
9774.37
9472.63
9167.94
8861.42
8554.2
8247.43
7942.27
7639.85
7341.3
7047.69
6760.08
6479.45
6206.72
5942.77
5688.35
5444.18
5210.86
4988.93
4778.8
4580.83
4395.26
4222.27
4061.92
3914.23
3779.1
3656.41
3545.94
3447.42
3360.53
3284.91
3220.15
3165.84
3121.5
3086.66
3060.84
3043.53
3034.24
3032.46
3037.71
3049.48
3067.3
3090.69
3119.21
3152.41
3189.85
3231.13
3275.83
3323.58
3373.99
3426.71
3481.39
3537.68
3595.27
3653.83
3713.06
3772.65
3832.33
3891.81
3950.83
4009.11
4066.42
4122.51
4177.14
4230.11
4281.2
4330.22
4376.98
4421.32
4463.08
4502.12
4538.32
4571.56
4601.76
4628.84
4652.72
4673.37
4690.76
4704.87
4715.69
4723.25
4727.57
4728.69
4726.68
4721.59
4713.51
4702.53
4688.76
4672.3
4653.27
4631.8
4608.01
4582
4553.85
4523.55
4490.94
4455.55
4416.36
4371.18
4315.71
4241.49
4132.15
3956.05
3652.13
3102.24
2076.07
373.786
1546.06
15000
15000
15000
15000
15000
15000
15000
15000
15000
15000
15000
15000
15000
15000
15000
15000
15000
15000
14999.9
14999.9
14999.9
14999.8
14999.8
14999.7
14999.6
14999.5
14999.3
14999.1
14998.9
14998.5
14998.1
14997.6
14997
14996.2
14995.1
14993.9
14992.4
14990.5
14988.2
14985.4
14982.1
14978
14973.2
14967.4
14960.5
14952.4
14942.8
14931.5
14918.3
14902.9
14885
14864.4
14840.6
14813.3
14782.1
14746.6
14706.3
14660.9
14609.8
14552.5
14488.5
14417.3
14338.5
14251.5
14155.8
14050.9
13936.5
13812.1
13677.4
13532
13375.6
13208.2
13029.4
12839.4
12638.1
12425.6
12202.1
11968
11723.6
11469.4
11206
10934.1
10654.3
10367.6
10074.9
9777.05
9475.14
9170.25
8863.49
8555.98
8248.89
7943.35
7640.51
7341.49
7047.37
6759.2
6477.97
6204.6
5939.96
5684.82
5439.89
5205.78
4983.02
4772.03
4573.18
4386.71
4212.79
4051.51
3902.86
3766.78
3643.12
3531.68
3432.18
3344.33
3267.74
3202.03
3146.77
3101.5
3065.75
3039.04
3020.86
3010.71
3008.11
3012.55
3023.55
3040.62
3063.31
3091.14
3123.7
3160.53
3201.24
3245.41
3292.67
3342.64
3394.95
3449.27
3505.26
3562.58
3620.92
3679.98
3739.46
3799.06
3858.52
3917.56
3975.91
4033.34
4089.58
4144.42
4197.62
4248.99
4298.32
4345.42
4390.13
4432.28
4471.73
4508.36
4542.05
4572.69
4600.22
4624.57
4645.67
4663.51
4678.06
4689.31
4697.29
4702.01
4703.52
4701.87
4697.13
4689.37
4678.7
4665.21
4649.02
4630.24
4609
4585.43
4559.62
4531.66
4501.53
4469.09
4433.89
4394.87
4349.91
4294.69
4220.79
4111.88
3936.34
3633.2
3085.21
2068.78
371.835
1548.37
15000
15000
15000
15000
15000
15000
15000
15000
15000
15000
15000
15000
15000
15000
15000
15000
15000
15000
14999.9
14999.9
14999.9
14999.8
14999.8
14999.7
14999.6
14999.5
14999.3
14999.1
14998.9
14998.5
14998.1
14997.6
14997
14996.2
14995.2
14993.9
14992.4
14990.5
14988.2
14985.5
14982.1
14978.1
14973.3
14967.5
14960.6
14952.5
14942.9
14931.6
14918.4
14903.1
14885.2
14864.6
14840.9
14813.6
14782.5
14747.1
14706.9
14661.5
14610.5
14553.2
14489.4
14418.3
14339.6
14252.7
14157.1
14052.4
13938.2
13813.9
13679.3
13534.1
13377.9
13210.5
13032
12842
12640.9
12428.5
12205.1
11971.1
11726.8
11472.7
11209.3
10937.4
10657.6
10370.9
10078
9780.05
9477.97
9172.86
8865.84
8558.02
8250.57
7944.62
7641.33
7341.8
7047.12
6758.35
6476.46
6202.39
5936.99
5681.06
5435.3
5200.32
4976.65
4764.73
4564.9
4377.44
4202.51
4040.19
3890.49
3753.35
3628.62
3516.11
3415.54
3326.61
3248.96
3182.2
3125.89
3079.6
3042.83
3015.12
2995.96
2984.87
2981.34
2984.89
2995.02
3011.27
3033.15
3060.23
3092.06
3128.21
3168.27
3211.85
3258.56
3308.02
3359.88
3413.79
3469.41
3526.43
3584.52
3643.38
3702.71
3762.22
3821.64
3880.69
3939.11
3996.65
4053.06
4108.1
4161.56
4213.22
4262.88
4310.35
4355.46
4398.04
4437.94
4475.03
4509.2
4540.35
4568.37
4593.22
4614.83
4633.16
4648.19
4659.92
4668.36
4673.53
4675.47
4674.22
4669.87
4662.48
4652.15
4638.98
4623.09
4604.59
4583.61
4560.28
4534.7
4506.95
4477.03
4444.78
4409.77
4370.96
4326.21
4271.25
4197.7
4089.25
3914.4
3612.5
3067.33
2056.22
368.981
1556.9
15000
15000
15000
15000
15000
15000
15000
15000
15000
15000
15000
15000
15000
15000
15000
15000
15000
15000
14999.9
14999.9
14999.9
14999.8
14999.8
14999.7
14999.6
14999.5
14999.3
14999.1
14998.9
14998.6
14998.1
14997.6
14997
14996.2
14995.2
14993.9
14992.4
14990.5
14988.3
14985.5
14982.2
14978.1
14973.3
14967.6
14960.7
14952.6
14943
14931.8
14918.6
14903.3
14885.5
14864.9
14841.2
14814
14782.9
14747.6
14707.5
14662.2
14611.2
14554.1
14490.3
14419.4
14340.8
14254
14158.6
14054
13939.9
13815.8
13681.4
13536.3
13380.3
13213.1
13034.7
12844.9
12643.9
12431.7
12208.5
11974.5
11730.3
11476.3
11212.9
10941
10661.2
10374.4
10081.5
9783.37
9481.11
9175.77
8868.47
8560.33
8252.49
7946.11
7642.32
7342.25
7046.98
6757.55
6474.95
6200.12
5933.93
5677.14
5430.48
5194.56
4969.91
4756.97
4556.1
4367.56
4191.53
4028.09
3877.25
3738.96
3613.07
3499.39
3397.65
3307.56
3228.75
3160.83
3103.38
3055.95
3018.08
2989.28
2969.05
2956.92
2952.38
2954.94
2964.12
2979.45
3000.45
3026.69
3057.72
3093.11
3132.46
3175.37
3221.46
3270.35
3321.7
3375.15
3430.37
3487.04
3544.83
3603.46
3662.61
3722.01
3781.37
3840.42
3898.89
3956.54
4013.11
4068.37
4122.09
4174.06
4224.07
4271.93
4317.46
4360.49
4400.88
4438.48
4473.16
4504.84
4533.41
4558.79
4580.95
4599.82
4615.38
4627.63
4636.58
4642.23
4644.63
4643.84
4639.91
4632.92
4622.97
4610.16
4594.6
4576.41
4555.72
4532.66
4507.33
4479.82
4450.12
4418.09
4383.29
4344.7
4300.2
4245.52
4172.33
4064.4
3890.35
3589.66
3045.48
2030.48
367.495
1557.2
15000
15000
15000
15000
15000
15000
15000
15000
15000
15000
15000
15000
15000
15000
15000
15000
15000
15000
14999.9
14999.9
14999.9
14999.8
14999.8
14999.7
14999.6
14999.5
14999.3
14999.1
14998.9
14998.6
14998.1
14997.6
14997
14996.2
14995.2
14993.9
14992.4
14990.6
14988.3
14985.5
14982.2
14978.2
14973.4
14967.6
14960.8
14952.7
14943.2
14931.9
14918.8
14903.5
14885.8
14865.2
14841.6
14814.4
14783.4
14748.1
14708.1
14662.9
14612
14555
14491.4
14420.6
14342.1
14255.5
14160.2
14055.8
13941.8
13817.9
13683.7
13538.7
13382.9
13215.9
13037.7
12848.1
12647.2
12435.1
12212
11978.2
11734.1
11480.1
11216.9
10945
10665.2
10378.3
10085.3
9787
9484.56
9178.99
8871.39
8562.9
8254.66
7947.82
7643.52
7342.87
7046.96
6756.84
6473.5
6197.87
5930.81
5673.12
5425.5
5188.58
4962.88
4748.86
4546.87
4357.18
4179.97
4015.33
3863.27
3723.74
3596.61
3481.67
3378.68
3287.33
3207.27
3138.1
3079.42
3030.78
2991.7
2961.72
2940.34
2927.07
2921.43
2922.92
2931.06
2945.39
2965.43
2990.75
3020.9
3055.46
3094.03
3136.2
3181.61
3229.88
3280.65
3333.58
3388.35
3444.62
3502.09
3560.44
3619.39
3678.64
3737.91
3796.94
3855.46
3913.21
3969.94
4025.41
4079.4
4131.69
4182.06
4230.32
4276.3
4319.81
4360.7
4398.83
4434.07
4466.31
4495.45
4521.42
4544.15
4563.6
4579.74
4592.55
4602.04
4608.22
4611.13
4610.82
4607.35
4600.8
4591.27
4578.84
4563.64
4545.8
4525.43
4502.66
4477.61
4450.36
4420.91
4389.12
4354.55
4316.2
4271.96
4217.6
4144.82
4037.5
3864.52
3565.97
3027.15
2031.07
367.441
1555.35
15000
15000
15000
15000
15000
15000
15000
15000
15000
15000
15000
15000
15000
15000
15000
15000
15000
15000
14999.9
14999.9
14999.9
14999.8
14999.8
14999.7
14999.6
14999.5
14999.3
14999.1
14998.9
14998.6
14998.2
14997.6
14997
14996.2
14995.2
14994
14992.4
14990.6
14988.3
14985.6
14982.3
14978.3
14973.5
14967.7
14960.9
14952.8
14943.3
14932.1
14919
14903.8
14886.1
14865.6
14842
14814.9
14784
14748.7
14708.8
14663.7
14612.9
14556
14492.5
14421.8
14343.5
14257
14161.9
14057.7
13943.9
13820.1
13686.1
13541.3
13385.7
13218.9
13040.8
12851.4
12650.7
12438.8
12215.9
11982.2
11738.2
11484.3
11221.1
10949.2
10669.4
10382.5
10089.4
9790.96
9488.32
9182.5
8874.6
8565.76
8257.1
7949.79
7644.94
7343.69
7047.12
6756.28
6472.15
6195.68
5927.72
5669.07
5420.45
5182.46
4955.67
4740.5
4537.33
4346.42
4167.96
4002.05
3848.7
3707.86
3579.4
3463.13
3358.8
3266.11
3184.71
3114.22
3054.22
3004.27
2963.91
2932.66
2910.04
2895.56
2888.73
2889.07
2896.09
2909.34
2928.34
2952.66
2981.85
3015.51
3053.22
3094.6
3139.26
3186.83
3236.98
3289.34
3343.6
3399.43
3456.52
3514.56
3573.26
3632.34
3691.5
3750.49
3809.02
3866.86
3923.74
3979.42
4033.68
4086.28
4137.02
4185.71
4232.14
4276.14
4317.56
4356.25
4392.06
4424.9
4454.65
4481.23
4504.58
4524.65
4541.39
4554.79
4564.86
4571.61
4575.06
4575.27
4572.3
4566.23
4557.13
4545.13
4530.33
4512.85
4492.83
4470.38
4445.64
4418.67
4389.49
4357.96
4323.66
4285.57
4241.61
4187.59
4115.28
4008.7
3837.02
3541.02
3006.96
2015.67
367.48
1553.13
15000
15000
15000
15000
15000
15000
15000
15000
15000
15000
15000
15000
15000
15000
15000
15000
15000
15000
14999.9
14999.9
14999.9
14999.8
14999.8
14999.7
14999.6
14999.5
14999.3
14999.1
14998.9
14998.6
14998.2
14997.6
14997
14996.2
14995.2
14994
14992.5
14990.6
14988.4
14985.6
14982.3
14978.3
14973.5
14967.8
14961
14953
14943.5
14932.3
14919.3
14904
14886.4
14865.9
14842.4
14815.4
14784.5
14749.4
14709.5
14664.5
14613.9
14557.1
14493.7
14423.1
14344.9
14258.6
14163.7
14059.6
13946
13822.5
13688.6
13544.1
13388.6
13222.1
13044.2
12855
12654.5
12442.8
12220
11986.5
11742.6
11488.8
11225.6
10953.8
10674
10387
10093.8
9795.22
9492.39
9186.32
8878.12
8568.91
8259.82
7952.01
7646.62
7344.75
7047.49
6755.89
6470.95
6193.6
5924.7
5665.06
5415.38
5176.3
4948.35
4731.99
4527.58
4335.4
4155.63
3988.38
3833.67
3691.45
3561.59
3443.92
3338.18
3244.07
3161.26
3089.37
3027.97
2976.64
2934.91
2902.32
2878.38
2862.6
2854.51
2853.62
2859.45
2871.53
2889.42
2912.67
2940.84
2973.52
3010.31
3050.82
3094.66
3141.49
3190.94
3242.68
3296.38
3351.71
3408.38
3466.06
3524.48
3583.35
3642.37
3701.28
3759.82
3817.72
3874.73
3930.61
3985.13
4038.05
4089.17
4138.27
4185.17
4229.68
4271.64
4310.9
4347.32
4380.77
4411.16
4438.38
4462.38
4483.08
4500.46
4514.5
4525.18
4532.52
4536.55
4537.32
4534.88
4529.31
4520.69
4509.14
4494.76
4477.69
4458.04
4435.94
4411.53
4384.87
4355.98
4324.74
4290.71
4252.91
4209.26
4155.62
4083.83
3978.08
3807.86
3514.56
2985.64
2005.91
367.532
1567.35
15000
15000
15000
15000
15000
15000
15000
15000
15000
15000
15000
15000
15000
15000
15000
15000
15000
15000
14999.9
14999.9
14999.9
14999.8
14999.8
14999.7
14999.6
14999.5
14999.3
14999.1
14998.9
14998.6
14998.2
14997.7
14997
14996.2
14995.2
14994
14992.5
14990.7
14988.4
14985.7
14982.4
14978.4
14973.6
14967.9
14961.1
14953.1
14943.6
14932.5
14919.5
14904.3
14886.7
14866.3
14842.8
14815.9
14785.1
14750
14710.3
14665.4
14614.8
14558.2
14494.9
14424.5
14346.5
14260.3
14165.6
14061.7
13948.3
13825
13691.3
13547
13391.8
13225.4
13047.8
12858.8
12658.5
12446.9
12224.3
11991
11747.2
11493.5
11230.4
10958.6
10678.8
10391.8
10098.5
9799.79
9496.77
9190.45
8881.94
8572.35
8262.83
7954.52
7648.56
7346.05
7048.09
6755.72
6469.94
6191.68
5921.82
5661.15
5410.39
5170.16
4941.02
4723.42
4517.72
4324.21
4143.09
3974.45
3818.32
3674.66
3543.35
3424.21
3316.99
3221.41
3137.12
3063.75
3000.89
2948.1
2904.94
2870.93
2845.59
2828.45
2819.02
2816.82
2821.38
2832.23
2848.93
2871.04
2898.11
2929.75
2965.55
3005.12
3048.1
3094.11
3142.81
3193.87
3246.95
3301.74
3357.93
3415.22
3473.31
3531.92
3590.77
3649.58
3708.09
3766.03
3823.16
3879.22
3933.98
3987.21
4038.7
4088.22
4135.59
4180.62
4223.13
4262.98
4300.01
4334.1
4365.14
4393.03
4417.69
4439.07
4457.11
4471.8
4483.13
4491.1
4495.74
4497.09
4495.21
4490.17
4482.07
4470.99
4457.07
4440.42
4421.17
4399.45
4375.39
4349.06
4320.5
4289.56
4255.83
4218.34
4175.03
4121.8
4050.59
3945.76
3777.25
3487.5
2966.93
2009.81
368.201
1565.58
15000
15000
15000
15000
15000
15000
15000
15000
15000
15000
15000
15000
15000
15000
15000
15000
15000
15000
14999.9
14999.9
14999.9
14999.8
14999.8
14999.7
14999.6
14999.5
14999.3
14999.1
14998.9
14998.6
14998.2
14997.7
14997
14996.2
14995.2
14994
14992.5
14990.7
14988.4
14985.7
14982.4
14978.5
14973.7
14968
14961.3
14953.3
14943.8
14932.7
14919.7
14904.6
14887
14866.7
14843.3
14816.4
14785.7
14750.8
14711.1
14666.3
14615.9
14559.4
14496.2
14426
14348.1
14262.2
14167.6
14063.9
13950.7
13827.6
13694.2
13550.1
13395.1
13228.9
13051.5
12862.7
12662.6
12451.3
12228.9
11995.7
11752.1
11498.5
11235.5
10963.7
10683.9
10396.9
10103.5
9804.67
9501.46
9194.89
8886.07
8576.11
8266.15
7957.33
7650.79
7347.63
7048.95
6755.8
6469.16
6189.98
5919.13
5657.4
5405.53
5164.13
4933.76
4714.88
4507.86
4312.99
4130.46
3960.38
3802.79
3657.65
3524.83
3404.16
3295.42
3198.29
3112.47
3037.56
2973.17
2918.87
2874.2
2838.71
2811.91
2793.33
2782.49
2778.92
2782.14
2791.7
2807.14
2828.04
2853.95
2884.48
2919.22
2957.8
2999.83
3044.97
3092.86
3143.18
3195.59
3249.78
3305.45
3362.29
3420.01
3478.33
3536.96
3595.63
3654.08
3712.04
3769.25
3825.48
3880.47
3933.99
3985.83
4035.77
4083.6
4129.15
4172.22
4212.66
4250.31
4285.05
4316.76
4345.33
4370.68
4392.75
4411.49
4426.86
4438.86
4447.48
4452.75
4454.72
4453.42
4448.95
4441.38
4430.81
4417.37
4401.17
4382.35
4361.03
4337.35
4311.38
4283.15
4252.54
4219.13
4181.97
4139.02
4086.24
4015.63
3911.76
3744.89
3458.12
2942.83
1991.56
364.371
1568.32
15000
15000
15000
15000
15000
15000
15000
15000
15000
15000
15000
15000
15000
15000
15000
15000
15000
15000
14999.9
14999.9
14999.9
14999.8
14999.8
14999.7
14999.6
14999.5
14999.3
14999.2
14998.9
14998.6
14998.2
14997.7
14997
14996.2
14995.3
14994
14992.5
14990.7
14988.5
14985.8
14982.5
14978.5
14973.8
14968.1
14961.4
14953.4
14944
14932.9
14920
14904.9
14887.4
14867.1
14843.8
14817
14786.4
14751.5
14711.9
14667.3
14617
14560.6
14497.6
14427.5
14349.8
14264.1
14169.7
14066.2
13953.2
13830.3
13697.1
13553.3
13398.5
13232.6
13055.4
12866.9
12667
12455.9
12233.7
12000.6
11757.2
11503.7
11240.8
10969.1
10689.3
10402.3
10108.8
9809.85
9506.45
9199.64
8890.51
8580.18
8269.78
7960.44
7653.32
7349.51
7050.11
6756.15
6468.65
6188.53
5916.67
5653.88
5400.86
5158.27
4926.65
4706.47
4498.1
4301.83
4117.86
3946.31
3787.22
3640.54
3506.17
3383.94
3273.61
3174.9
3087.49
3010.99
2945.02
2889.14
2842.92
2805.88
2777.56
2757.48
2745.18
2740.17
2741.99
2750.19
2764.31
2783.93
2808.62
2837.97
2871.6
2909.11
2950.14
2994.34
3041.37
3090.89
3142.57
3196.11
3251.21
3307.55
3364.85
3422.83
3481.21
3539.7
3598.05
3655.99
3713.27
3769.62
3824.82
3878.62
3930.8
3981.14
4029.43
4075.48
4119.11
4160.14
4198.43
4233.82
4266.21
4295.47
4321.53
4344.31
4363.75
4379.82
4392.51
4401.81
4407.74
4410.34
4409.66
4405.77
4398.76
4388.73
4375.79
4360.07
4341.7
4320.81
4297.52
4271.93
4244.07
4213.8
4180.74
4143.92
4101.36
4049.03
3979.04
3876.06
3710.52
3425.31
2909.92
1949.65
360.442
1557.51
15000
15000
15000
15000
15000
15000
15000
15000
15000
15000
15000
15000
15000
15000
15000
15000
15000
15000
14999.9
14999.9
14999.9
14999.8
14999.8
14999.7
14999.6
14999.5
14999.4
14999.2
14998.9
14998.6
14998.2
14997.7
14997
14996.3
14995.3
14994.1
14992.6
14990.8
14988.5
14985.8
14982.6
14978.6
14973.9
14968.2
14961.5
14953.6
14944.2
14933.2
14920.3
14905.2
14887.8
14867.6
14844.3
14817.6
14787
14752.3
14712.8
14668.3
14618.1
14561.9
14499
14429.1
14351.6
14266
14171.8
14068.6
13955.9
13833.2
13700.2
13556.6
13402.1
13236.4
13059.5
12871.2
12671.6
12460.7
12238.7
12005.8
11762.5
11509.2
11246.4
10974.8
10695
10407.9
10114.4
9815.32
9511.74
9204.7
8895.26
8584.56
8273.72
7963.88
7656.17
7351.71
7051.57
6756.82
6468.44
6187.37
5914.5
5650.62
5396.46
5152.66
4919.77
4698.26
4488.52
4290.83
4105.4
3932.35
3771.72
3623.48
3487.53
3363.69
3251.75
3151.41
3062.36
2984.23
2916.63
2859.13
2811.29
2772.66
2742.77
2721.14
2707.31
2700.81
2701.17
2707.95
2720.7
2738.98
2762.38
2790.5
2822.95
2859.34
2899.32
2942.53
2988.62
3037.29
3088.19
3141.02
3195.49
3251.28
3308.12
3365.71
3423.78
3482.06
3540.27
3598.16
3655.46
3711.92
3767.29
3821.34
3873.84
3924.56
3973.3
4019.85
4064.02
4105.64
4144.55
4180.6
4213.67
4243.63
4270.4
4293.9
4314.06
4330.85
4344.25
4354.24
4360.85
4364.11
4364.06
4360.79
4354.36
4344.88
4332.47
4317.25
4299.35
4278.91
4256.04
4230.85
4203.37
4173.47
4140.77
4104.32
4062.16
4010.31
3940.93
3838.82
3674.57
3391.36
2879.21
1924.68
358.448
1545.06
15000
15000
15000
15000
15000
15000
15000
15000
15000
15000
15000
15000
15000
15000
15000
15000
15000
15000
14999.9
14999.9
14999.9
14999.8
14999.8
14999.7
14999.6
14999.5
14999.4
14999.2
14998.9
14998.6
14998.2
14997.7
14997.1
14996.3
14995.3
14994.1
14992.6
14990.8
14988.6
14985.9
14982.6
14978.7
14974
14968.4
14961.7
14953.8
14944.4
14933.4
14920.6
14905.6
14888.2
14868
14844.8
14818.2
14787.7
14753.1
14713.8
14669.3
14619.3
14563.2
14500.5
14430.8
14353.5
14268.1
14174.1
14071.1
13958.6
13836.2
13703.4
13560.1
13405.8
13240.4
13063.8
12875.7
12676.3
12465.6
12243.9
12011.2
11768.1
11514.9
11252.2
10980.7
10701
10413.9
10120.3
9821.09
9517.34
9210.06
8900.33
8589.26
8277.98
7967.64
7659.35
7354.23
7053.37
6757.81
6468.56
6186.54
5912.65
5647.68
5392.37
5147.35
4913.18
4690.34
4479.21
4280.08
4093.17
3918.6
3756.42
3606.59
3469.03
3343.56
3229.97
3127.97
3037.25
2957.45
2888.18
2829.02
2779.54
2739.27
2707.75
2684.53
2669.13
2661.08
2659.94
2665.24
2676.56
2693.45
2715.51
2742.34
2773.55
2808.77
2847.63
2889.79
2934.9
2982.65
3032.72
3084.79
3138.57
3193.77
3250.08
3307.24
3364.97
3422.98
3481.01
3538.8
3596.08
3652.61
3708.13
3762.4
3815.19
3866.28
3915.43
3962.46
4007.16
4049.36
4088.89
4125.59
4159.34
4190
4217.49
4241.71
4262.61
4280.12
4294.24
4304.94
4312.24
4316.17
4316.78
4314.13
4308.31
4299.41
4287.55
4272.84
4255.44
4235.46
4213.04
4188.27
4161.18
4131.67
4099.35
4063.29
4021.55
3970.18
3901.43
3800.22
3637.35
3356.6
2849.72
1905.83
356.017
1546.81
15000
15000
15000
15000
15000
15000
15000
15000
15000
15000
15000
15000
15000
15000
15000
15000
15000
15000
14999.9
14999.9
14999.9
14999.8
14999.8
14999.7
14999.6
14999.5
14999.4
14999.2
14998.9
14998.6
14998.2
14997.7
14997.1
14996.3
14995.3
14994.1
14992.6
14990.8
14988.6
14985.9
14982.7
14978.8
14974.1
14968.5
14961.8
14953.9
14944.6
14933.7
14920.9
14905.9
14888.6
14868.5
14845.4
14818.8
14788.5
14753.9
14714.7
14670.4
14620.5
14564.6
14502.1
14432.5
14355.4
14270.2
14176.5
14073.7
13961.4
13839.2
13706.8
13563.7
13409.7
13244.6
13068.2
12880.4
12681.3
12470.8
12249.3
12016.8
11773.9
11520.9
11258.3
10986.9
10707.2
10420.1
10126.4
9827.14
9523.23
9215.72
8905.7
8594.27
8282.57
7971.72
7662.86
7357.09
7055.51
6759.15
6469.02
6186.06
5911.15
5645.1
5388.62
5142.38
4906.93
4682.75
4470.23
4269.66
4081.26
3905.15
3741.4
3589.98
3450.79
3323.67
3208.41
3104.73
3012.32
2930.83
2859.86
2799.01
2747.84
2705.89
2672.72
2647.86
2630.85
2621.22
2618.52
2622.31
2632.14
2647.6
2668.27
2693.76
2723.68
2757.67
2795.36
2836.41
2880.49
2927.27
2976.45
3027.7
3080.75
3135.29
3191.03
3247.71
3305.03
3362.73
3420.53
3478.18
3535.41
3591.97
3647.6
3702.05
3755.1
3806.52
3856.07
3903.55
3948.77
3991.53
4031.66
4069
4103.42
4134.78
4162.98
4187.93
4209.55
4227.8
4242.65
4254.07
4262.07
4266.69
4267.97
4265.96
4260.76
4252.45
4241.15
4226.99
4210.09
4190.6
4168.64
4144.31
4117.64
4088.53
4056.6
4020.95
3979.64
3928.78
3860.68
3760.4
3598.95
3320.33
2816.12
1877.21
355.126
1569.91
15000
15000
15000
15000
15000
15000
15000
15000
15000
15000
15000
15000
15000
15000
15000
15000
15000
15000
14999.9
14999.9