<?xml version="1.0"?>
<VTKFile type="PolyData" version="0.1" byte_order="LittleEndian">
  <PolyData>
    <Piece NumberOfPoints="50000" NumberOfVerts="50000" NumberOfLines="0" NumberOfStrips="0" NumberOfPolys="0">
      <Points>
        <DataArray type="Float32" NumberOfComponents="3" format="ascii">
0.145827 0.00364903 0
-0.13729 0.00156596 0
0.141025 -0.000425851 0
0.147363 -0.000232034 0
-0.119187 0.00280811 0
-0.0999802 0.00132089 0
0.0484941 -0.00879723 0
-0.123517 0.000504761 0
0.0429448 -0.00675512 0
-0.00909335 0.00376364 0
0.110495 -0.0040367 0
0.140804 0.00338164 0
-0.0800754 0.00309061 0
-0.0563919 -0.00826953 0
-0.149929 0.00134795 0
0.113839 0.00495854 0
-0.0204015 -0.000231993 0
0.146056 0.00112914 0
0.0555972 0.00105104 0
-0.137384 0.00187384 0
-0.144096 0.00252224 0
0.126419 0.0029708 0
-0.142043 0.00145447 0
0.142614 0.000534173 0
0.0907375 -0.00407035 0
0.105877 0.0052102 0
-0.140571 -0.00219791 0
0.146443 -0.000690974 0
-0.100286 0.00903708 0
-0.148435 0.00381564 0
-0.111353 0.00491617 0
-0.103198 -0.00542964 0
0.145115 0.000836064 0
0.145865 0.00015057 0
0.0281091 0.00239522 0
0.148406 -5.69629e-05 0
0.0453076 0.00107733 0
-0.147341 0.00143651 0
-0.137379 -0.00136387 0
-0.152834 -0.000375174 0
0.10671 0.00529662 0
0.112942 0.00276502 0
-0.140729 -0.000336059 0
0.144199 0.000801931 0
0.149137 0.00101377 0
-0.144773 0.0036952 0
0.142155 0.00235269 0
0.0727889 -0.00487402 0
0.140195 0.000663773 0
0.143564 0.000607924 0
0.0600752 0.00831487 0
-0.142069 0.000146935 0
-0.0983076 0.00396894 0
0.141762 0.00161461 0
-0.139759 0.00142913 0
-0.148874 0.00148647 0
0.145937 8.96595e-05 0
0.0589254 0.00474997 0
0.108909 0.00328741 0
0.150609 -0.00122202 0
0.122758 0.00227805 0
0.147544 0.00153039 0
0.03268 -0.0110407 0
0.150484 -8.90877e-05 0
-0.0475869 0.00667314 0
-0.139407 0.00107022 0
0.143064 0.000223797 0
0.146801 0.000315422 0
0.151765 0.00201908 0
0.10521 0.000905159 0
-0.140875 0.00174981 0
0.143013 0.00193059 0
0.0785793 0.00103965 0
0.079736 0.00303651 0
0.0681538 0.00242203 0
-0.143168 -0.000357649 0
0.12449 0.0050713 0
-0.13566 0.00214223 0
0.109982 0.00304381 0
-0.148528 0.00116529 0
-0.0740127 -0.011542 0
-0.145608 0.00216287 0
0.135281 0.00243485 0
-0.141646 0.000800718 0
0.150425 -0.00114038 0
-0.141801 0.00178155 0
0.150624 -0.00110996 0
-0.0633076 -0.0024915 0
-0.0611478 0.00884327 0
-0.143301 -0.00202201 0
0.141807 0.00300519 0
-0.14013 0.000340401 0
0.142192 -7.77228e-05 0
-0.0959371 0.00762013 0
-0.0139016 -0.00722169 0
-0.125775 0.0024833 0
0.14225 0.00374958 0
-0.144292 0.00175535 0
-0.152276 0.00322085 0
-0.150787 0.000216035 0
-0.126159 -0.00213334 0
-0.140688 -0.00147598 0
0.151493 0.000356323 0
-0.0601589 -0.00680507 0
0.152563 0.000401384 0
0.124579 0.00513409 0
0.0924613 0.00304306 0
0.00771048 0.00338286 0
0.14005 0.00221156 0
-0.142609 -0.00111193 0
-0.106828 0.00764037 0
-0.1445 0.00171994 0
-0.122963 0.00437269 0
99.365 143.737 0
0.0956584 0.00323707 0
-0.142328 0.00186897 0
-0.147644 0.00216739 0
2.53879 3.47281 0
-0.143575 0.00116265 0
-0.00663871 -0.00247919 0
0.146499 9.45327e-05 0
-0.138568 -0.000810233 0
0.0989852 -0.000638227 0
-0.132065 0.00324747 0
0.143664 0.000349605 0
0.139708 0.000259814 0
0.0459528 0.00912908 0
0.147358 0.00218155 0
-0.127841 -0.00188582 0
0.111326 0.00026596 0
0.148461 -0.000533169 0
0.147197 0.00045144 0
-0.151515 0.000849711 0
-0.126288 0.00203503 0
0.150911 -3.654e-05 0
0.143469 0.000239506 0
0.138172 -0.000408656 0
-0.0222548 0.00171019 0
0.115314 -0.00447252 0
0.112285 -0.00366676 0
0.115267 -0.00455652 0
0.136745 0.00404558 0
0.148229 -0.000606858 0
-0.0335447 -0.00440009 0
-0.14701 0.00298322 0
0.098063 -0.00744278 0
-0.0935865 0.00775206 0
-0.14496 0.0012885 0
-0.102927 -0.0065084 0
-0.145454 0.0018929 0
0.111656 0.00324586 0
0.14253 0.00143278 0
-0.0436075 -0.00363343 0
0.115818 -0.0030962 0
0.115132 0.00359607 0
0.141441 0.00202505 0
0.0966674 -0.00287686 0
-0.14262 0.00156419 0
-0.0610334 -0.00155582 0
0.147837 0.000475037 0
0.0987824 4.67172e-06 0
-0.129486 -0.000520324 0
-0.140122 0.0014689 0
-0.145728 0.00148964 0
-0.0371575 0.00415695 0
0.113735 -0.00167251 0
0.128537 -0.00141058 0
0.130088 0.00191456 0
0.109339 0.00348077 0
-0.0593792 0.000787565 0
0.152175 -0.00115164 0
-0.139641 0.00168106 0
-0.0326389 -0.00153013 0
0.147277 0.00218597 0
-0.0260815 -0.000651952 0
-0.112269 0.00620562 0
-0.140024 0.00145588 0
-0.0845634 -0.00337371 0
-0.142051 -0.000288681 0
-0.142722 -0.00182874 0
0.14107 0.000570372 0
-0.144286 0.00285748 0
-0.142069 0.0024991 0
0.145754 0.00254002 0
0.142022 0.000270179 0
0.109528 -0.00560782 0
0.1525 -0.00062521 0
0.150752 0.000756418 0
0.146358 -0.000723211 0
0.0166089 0.0110833 0
0.148815 -0.000712349 0
0.120348 -0.00268442 0
-0.0955265 -0.0059882 0
0.133872 0.00289725 0
-0.131726 0.00285328 0
0.141097 0.00123408 0
-0.117188 0.00478028 0
-0.125104 0.00247032 0
-0.140462 0.00194786 0
0.14297 0.00239853 0
-0.093383 0.00736122 0
0.150298 0.00157146 0
0.130425 -0.00137376 0
-0.0290029 -0.00196197 0
0.15239 -0.00118828 0
-0.138727 -0.0023514 0
0.0198968 0.0174644 0
0.0606369 -0.00180256 0
-0.125132 0.0044107 0
-0.0878602 -0.00307308 0
0.139694 0.000812563 0
-0.0609663 -0.00692854 0
0.131458 -0.000726239 0
-0.120915 0.00452437 0
-0.0824831 -0.0050913 0
-0.145659 0.00272998 0
-0.143712 0.00331579 0
0.144792 0.000499909 0
-0.147442 5.10993e-05 0
-0.0168229 0.00808698 0
-0.113226 0.0047791 0
-0.147303 0.0018529 0
-0.136426 -0.00173342 0
0.151126 -0.000460231 0
0.0534489 0.00940279 0
-0.140127 0.00164039 0
0.15175 0.00100148 0
0.145864 0.000303323 0
-0.124196 0.00407173 0
-0.146982 0.000314565 0
-0.144672 -0.000858071 0
0.142027 0.00214705 0
0.0737165 0.00903041 0
-0.0217727 0.00594344 0
-0.14956 0.00213786 0
-0.128521 0.00267827 0
0.111208 -0.00570395 0
-0.112908 -0.00105266 0
-0.142804 0.00174933 0
0.0884073 -0.000468482 0
0.149005 0.000579306 0
-0.131355 -0.00193144 0
-0.14459 0.00175414 0
-0.0829434 -0.00446279 0
0.0729216 0.00303509 0
0.130024 0.00208748 0
-0.136185 0.00308817 0
0.145962 0.000302666 0
0.149964 0.0015471 0
0.0860239 0.00508384 0
0.0898294 0.00215263 0
-0.135745 0.00237487 0
0.14083 -0.000468765 0
-0.0637435 -0.00280436 0
-0.13121 0.00348432 0
0.141158 0.000492771 0
-0.127168 0.00341247 0
0.124598 0.00381062 0
0.0541261 0.00895613 0
0.0783647 0.000702844 0
0.149984 0.000926287 0
-0.135697 0.00231268 0
0.0277426 -0.00237915 0
0.0141469 -0.00442484 0
-0.0965732 0.00179002 0
-0.142822 0.000914955 0
-0.140469 0.00159859 0
-0.139717 2.13215e-05 0
0.144677 0.000230936 0
0.143406 0.00030211 0
0.147764 0.00025118 0
-0.144173 -0.000512765 0
0.0948348 0.00168686 0
0.00805495 0.00490557 0
-0.150368 0.00235164 0
-0.146134 0.00136823 0
0.140491 0.000455063 0
-0.139681 0.00162979 0
0.139154 0.00292637 0
-0.141881 6.72892e-06 0
-0.137269 0.000493641 0
-0.062933 -0.00763603 0
-0.144064 0.0014249 0
0.13707 -0.000199753 0
-0.122056 0.00441239 0
-0.137571 -0.000604792 0
-0.0541456 0.00769229 0
-0.143732 0.0017088 0
-0.145839 0.00190967 0
0.123685 -0.00052681 0
-0.050776 0.00300078 0
0.14445 0.000258625 0
0.147591 -0.000448294 0
0.0939279 0.00556554 0
0.149684 0.00178432 0
0.142504 0.00284537 0
0.149065 0.00210853 0
-0.0980396 0.0089116 0
-0.13492 0.00127677 0
-0.149802 0.000882671 0
0.152976 0.000921558 0
-0.0197397 0.00321782 0
0.143912 -3.86059e-05 0
0.140616 0.00179132 0
0.148133 0.00032473 0
0.0257117 0.00494103 0
-0.0749871 0.00951331 0
0.124601 0.00251358 0
-0.0167807 0.000709364 0
-0.070016 0.00391579 0
-0.117576 0.00470325 0
0.144578 0.00301453 0
-0.103963 0.00577529 0
0.133472 -0.00134345 0
0.110096 -0.00112054 0
-0.149512 0.00279653 0
0.11716 -0.00469109 0
0.151534 -0.00127025 0
0.135456 -0.000497373 0
0.145021 0.00327763 0
-0.14585 0.00247168 0
-0.0314334 0.00595691 0
0.147584 0.00133488 0
0.14705 0.000256252 0
0.0677483 0.00943901 0
-0.139306 0.000370972 0
-0.13637 0.00236259 0
0.151305 0.000773093 0
-0.139243 -0.000530354 0
0.146227 0.001504 0
0.147124 -0.000278237 0
0.0703412 -0.00779308 0
0.140696 0.00185009 0
-0.14319 0.0017367 0
-0.122181 0.000340782 0
-0.0818691 -0.000344645 0
0.0120861 -0.00218257 0
0.0178592 -0.0098351 0
-0.1313 0.00176366 0
0.0654396 -0.00871364 0
-0.014642 0.0149514 0
-0.14798 0.00272747 0
-0.105257 0.00545113 0
-0.14436 0.00214553 0
-0.0592077 -0.00428742 0
0.147201 0.00308577 0
-0.102134 0.00605186 0
-0.146305 0.000516525 0
-20.4703 84.6729 0
0.146778 -0.00127859 0
0.146249 0.000201291 0
-0.11864 0.00563811 0
0.142413 0.00167656 0
0.134959 0.000231417 0
-188.598 -337.278 0
0.0450107 0.00581466 0
-0.144745 0.00188002 0
-0.119877 -0.000319608 0
0.145067 0.00186713 0
1.3711 -2.82261 0
0.137232 0.00238058 0
-0.141753 -0.00163348 0
-0.0899681 0.000662644 0
-0.143962 -0.000646279 0
-0.146649 0.00296626 0
0.144062 0.000233279 0
-0.148605 4.60775e-05 0
-0.128743 0.00385438 0
0.112847 0.00509062 0
-0.140096 0.000579628 0
-0.116457 0.00564419 0
-0.129428 0.00351124 0
0.14543 0.00210958 0
0.131189 -0.00191061 0
-0.0857762 0.00738873 0
0.14973 -0.000140565 0
-0.144883 -0.00149168 0
-0.134224 -0.000732454 0
-0.146389 0.00100284 0
0.0131305 -0.0104551 0
-0.141005 -0.0013832 0
0.143836 0.00214617 0
-0.143392 0.00188486 0
-0.142862 0.00126465 0
-0.0346094 0.00598765 0
0.0939135 0.00549543 0
-0.0459476 0.0135792 0
0.0311868 0.00796058 0
-0.144878 0.00195952 0
-0.0256237 0.00188137 0
-0.145235 0.000199754 0
-0.145887 0.00252765 0
0.140427 -0.00147847 0
0.123378 0.00397138 0
-0.136206 0.00287222 0
0.130751 0.00237723 0
0.129498 0.00108742 0
-0.139102 0.00166355 0
-0.0763153 -0.00195695 0
0.102326 -0.00557472 0
-0.139476 0.000849367 0
0.124029 -0.00259483 0
0.0571414 -0.00112579 0
-0.142969 0.000209732 0
0.134782 0.000384305 0
0.141766 -0.000228645 0
0.144241 -0.00107339 0
0.146855 5.61784e-05 0
0.149225 0.000626844 0
0.141764 0.00311105 0
-0.144155 0.0015568 0
0.104232 0.00406395 0
-0.118672 -0.0012359 0
0.0683767 0.0101368 0
-0.135671 0.00154564 0
-0.0479282 -0.00141195 0
-0.112151 0.00479605 0
0.0416922 -0.00442026 0
-0.147121 0.00196755 0
0.141738 0.000231171 0
-0.0389916 0.0111451 0
[...]
      <PointData Scalars="T">
        <DataArray type="Float32" Name="T" format="ascii" NumberOfComponents="1">
309.99
349.26
311.499
311.499
356.052
367.658
311.499
379.704
311.499
356.052
311.499
309.99
356.052
359.062
368.978
309.99
359.062
300.673
300.637
348.319
356.052
309.99
357.157
300.763
311.499
309.99
359.062
311.499
356.052
356.052
356.052
359.062
300.51
301.484
309.99
311.499
300.679
359.943
359.062
359.062
309.99
309.99
359.062
300.531
300.482
356.052
309.99
311.499
300.661
300.731
309.99
386.788
356.052
301.978
361.278
356.535
301.905
309.99
309.99
311.499
309.99
301.248
311.499
311.499
356.052
381.782
301.113
300.944
309.99
300.486
341.74
309.99
300.534
309.99
309.99
359.062
309.99
356.052
309.99
372.455
359.062
356.052
309.99
369.212
311.499
342.232
311.499
359.062
356.052
359.062
309.99
379.654
311.499
356.052
359.062
356.052
309.99
341.561
356.052
388.141
359.062
359.062
300.897
359.062
300.849
309.99
309.99
309.99
309.99
359.062
356.052
342.34
356.052
309.99
309.99
347.642
356.052
309.99
372.455
359.062
301.821
359.062
311.499
356.052
300.919
301.001
309.99
309.99
359.062
300.985
311.499
300.76
374.973
356.052
311.499
301.068
311.499
342.34
311.499
311.499
311.499
309.99
311.499
359.062
356.052
311.499
356.052
367.713
359.062
349.553
309.99
300.881
359.062
311.499
309.99
309.99
311.499
349.26
359.062
300.749
311.499
359.062
356.897
356.535
356.052
311.499
311.499
309.99
309.99
367.972
311.499
343.447
359.062
309.99
359.062
356.052
357.157
359.062
359.062
359.062
300.764
356.052
356.052
309.99
300.971
311.499
311.499
300.56
311.499
309.99
311.499
311.499
359.062
309.99
356.052
300.684
356.052
356.052
356.052
309.99
356.052
301.556
311.499
359.062
311.499
359.062
309.99
311.499
356.052
359.062
300.524
359.062
311.499
356.052
359.062
356.052
356.052
300.739
387.99
356.052
356.052
347.05
359.062
311.499
309.99
344.62
300.478
300.948
356.052
382.669
359.062
309.99
309.99
356.052
356.052
356.052
311.499
359.062
341.74
311.499
300.764
359.062
341.561
359.062
309.99
309.99
356.052
300.948
301.329
309.99
309.99
356.052
311.499
359.062
356.052
300.739
356.052
309.99
309.99
300.599
300.483
356.052
311.499
311.499
342.592
375.541
346.895
389.329
301.068
300.948
301.001
359.062
302.49
309.99
356.052
369.388
300.76
345.202
309.99
359.062
379.389
359.062
361.278
311.499
356.052
359.062
356.052
342.602
350.297
311.499
356.052
301.001
311.499
309.99
302.854
309.99
309.99
356.052
368.463
380.484
300.483
356.052
311.499
302.907
300.94
309.99
356.052
309.99
366.879
356.052
356.052
309.99
356.052
311.499
311.499
356.052
311.499
311.499
311.499
309.99
356.052
356.052
300.754
301.001
309.99
379.534
356.052
300.548
359.062
301.106
311.499
311.499
303.104
341.812
379.654
359.062
311.499
311.499
341.548
311.499
356.052
356.052
356.052
356.052
359.062
309.99
356.052
380.214
356.052
311.499
301.212
356.052
302.422
301.068
359.062
309.99
349.023
359.062
303.127
311.499
309.99
359.062
371.522
359.062
356.052
301.068
388.372
356.052
309.99
377.51
356.052
356.052
309.99
311.499
356.052
311.499
359.062
359.062
379.999
311.499
359.062
309.99
349.023
369.348
356.052
309.99
356.052
309.99
356.052
349.023
389.254
356.052
311.499
309.99
356.052
309.99
300.688
343.952
359.062
311.499
374.973
311.499
311.499
388.667
300.864
311.499
311.499
302.1
300.706
309.99
350.361
309.99
359.062
309.99
351.873
359.062
356.052
311.499
356.052
301.068
356.052
309.99
341.845
300.727
300.869
309.99
311.499
341.812
356.755
301.905
356.052
309.99
356.28
309.99
382.238
359.062
356.052
356.052
302.716
300.673
356.052
311.499
366.879
384.162
359.062
356.052
359.062
309.99
311.499
359.062
300.975
359.062
389.329
311.499
311.499
359.062
356.052
368.122
359.062
300.497
359.062
300.576
356.052
359.062
300.869
309.99
359.062
359.062
356.052
356.052
309.99
368.159
311.499
301.068
309.99
356.052
356.052
356.052
300.76
309.99
373.278
359.062
359.062
356.755
300.667
309.99
300.94
300.464
356.052
309.99
309.99
300.487
346.247
309.99
311.499
382.669
311.499
345.202
356.052
356.052
359.062
385.111
359.062
359.062
359.062
311.499
311.499
311.499
309.99
311.499
309.99
309.99
359.062
309.99
353.382
311.499
309.99
356.052
309.99
356.052
372.455
356.052
373.278
309.99
311.499
309.99
301.335
302.385
311.499
356.052
309.99
309.99
368.877
309.99
368.159
341.845
359.062
311.499
302.025
356.052
356.052
359.062
387.735
359.062
309.99
309.99
300.754
309.99
359.062
356.052
309.99
356.052
300.519
309.99
359.062
341.561
311.499
356.052
302.692
309.99
359.062
309.99
359.062
301.587
383.699
356.052
300.688
311.499
359.062
359.062
374.661
349.26
356.052
309.99
311.499
301.484
300.483
309.99
359.062
371.522
379.874
359.062
342.592
303.024
311.499
356.052
309.99
388.934
300.482
309.99
300.599
358.033
309.99
359.062
379.946
309.99
311.499
359.062
309.99
342.592
311.499
311.499
309.99
300.821
359.062
359.062
356.052
383.131
309.99
359.062
311.499
386.725
359.062
309.99
300.76
359.062
359.062
356.052
356.052
302.1
311.499
356.052
378.535
359.062
309.99
311.499
343.447
356.052
311.499
311.499
309.99
309.99
357.157
359.062
359.062
359.062
359.062
309.99
356.052
309.99
301.461
359.062
356.052
300.751
311.499
359.062
356.052
311.499
359.062
359.062
346.247
311.499
359.062
364.21
309.99
356.052
354.845
311.499
309.99
343.952
309.99
311.499
367.667
309.99
300.94
350.297
356.052
311.499
300.869
300.76
309.99
309.99
379.874
379.047
356.052
356.052
309.99
344.099
359.062
300.503
303.024
356.052
364.21
356.052
301.113
309.99
309.99
309.99
356.052
300.897
311.499
373.162
356.052
301.461
301.157
309.99
309.99
300.975
356.052
309.99
302.287
311.499
341.812
309.99
356.052
311.499
302.683
311.499
309.99
311.499
356.052
300.745
375.026
309.99
344.893
356.052
356.052
311.499
359.062
309.99
342.048
300.76
309.99
359.062
311.499
374.214
387.841
380.297
364.21
356.052
356.052
300.971
311.499
311.499
300.776
311.499
371.522
309.99
343.025
379.725
311.499
311.499
347.778
300.497
356.052
309.99
356.052
356.052
356.052
359.062
359.062
300.51
356.052
309.99
356.052
359.062
356.052
359.062
359.062
300.739
309.99
311.499
356.052
359.062
356.052
367.807
359.062
356.052
359.062
309.99
343.952
359.062
311.499
311.499
300.944
368.37
356.052
359.062
309.99
389.2
300.673
356.052
359.062
388.165
309.99
300.776
309.99
300.682
302.2
356.052
356.052
311.499
356.052
309.99
369.388
309.99
356.755
359.062
302.287
342.232
300.689
356.052
356.052
311.499
300.677
389.329
309.99
311.499
300.687
309.99
356.052
359.062
379.874
309.99
356.052
300.689
309.99
311.499
311.499
381.933
356.052
300.684
356.052
356.052
311.499
300.76
302.854
301.335
356.052
359.062
309.99
356.052
300.857
303.188
342.602
356.052
301.758
374.973
311.499
300.948
343.14
341.548
311.499
300.503
356.052
359.062
359.062
309.99
300.689
370.312
356.052
356.303
370.312
359.062
311.499
356.052
301.695
368.978
302.385
300.821
368.98
301.53
364.21
309.99
301.212
356.052
359.062
301.758
311.499
309.99
309.99
309.99
309.99
341.845
309.99
311.499
379.725
311.499
309.99
356.052
300.749
311.499
309.99
356.052
356.052
359.062
311.499
359.062
301.212
359.062
358.033
356.052
309.99
359.062
379.359
359.062
311.499
382.238
356.052
311.499
301.058
359.062
359.062
311.499
356.052
311.499
311.499
387.735
309.99
359.062
300.798
311.499
309.99
311.499
309.99
309.99
356.052
300.857
311.499
301.434
356.052
301.068
359.062
356.052
359.062
311.499
309.99
349.26
359.062
356.052
311.499
356.052
356.052
300.764
300.948
309.99
303.107
345.185
364.21
311.499
356.052
309.99
356.052
359.062
300.684
359.062
311.499
356.052
359.062
356.052
356.052
356.052
370.312
359.062
356.052
356.052
309.99
374.752
311.499
311.499
311.499
311.499
309.99
356.052
300.749
344.099
309.99
341.812
303.219
300.766
359.062
309.99
356.052
311.499
309.99
311.499
386.788
301.434
356.052
300.493
359.062
359.062
309.99
359.062
349.023
356.052
359.062
311.499
309.99
309.99
309.99
359.062
311.499
386.489
311.499
300.576
309.99
309.99
302.175
311.499
301.212
359.062
309.99
302.368
359.062
356.052
311.499
356.052
300.478
356.052
359.062
346.428
368.159
359.062
343.952
301.129
359.062
309.99
369.388
311.499
356.052
309.99
356.052
356.052
303.15
309.99
356.052
311.499
309.99
300.731
300.524
359.062
356.052
378.535
379.48
311.499
356.052
300.624
356.052
356.052
311.499
311.499
356.052
309.99
311.499
300.731
311.499
348.319
300.768
309.99
356.052
356.052
356.052
359.062
356.052
311.499
342.602
311.499
359.062
300.715
311.499
309.99
343.447
359.062
359.062
356.052
311.499
309.99
359.062
311.499
300.679
359.062
359.062
311.499
347.642
300.687
311.499
309.99
359.062
356.052
356.052
356.052
309.99
379.946
302.791
367.713
356.052
300.948
309.99
309.99
311.499
303.069
379.389
374.832
359.062
344.893
300.944
301.248
309.99
309.99
309.99
309.99
359.062
356.052
356.052
356.052
378.88
343.952
346.247
300.624
311.499
311.499
300.919
302.025
344.893
311.499
356.052
300.519
359.062
356.052
309.99
361.278
373.162
301.028
379.999
311.499
311.499
311.499
311.499
309.99
309.99
311.499
309.99
359.062
300.534
367.807
309.99
309.99
300.742
387.335
311.499
389.883
309.99
309.99
309.99
309.99
356.052
311.499
356.052
309.99
300.764
311.499
379.73
377.704
374.661
311.499
311.499
359.062
309.99
356.303
301.41
301.212
359.062
356.052
376.784
311.499
309.99
356.052
301.001
356.052
301.461
356.052
342.34
375.541
356.052
311.499
311.499
359.062
356.052
356.052
356.052
311.499
359.062
309.99
356.052
309.99
301.861
356.052
351.873
309.99
356.052
300.802
311.499
311.499
356.052
300.531
311.499
359.062
356.052
311.499
356.052
300.948
356.052
341.548
300.961
359.062
359.062
300.76
300.764
303.15
311.499
309.99
389.916
300.93
309.99
356.052
356.052
311.499
345.202
309.99
300.487
369.672
349.26
309.99
379.73
369.212
300.659
311.499
380.207
368.978
301.695
356.052
374.752
359.062
388.141
356.052
311.499
311.499
356.052
350.297
311.499
359.062
311.499
309.99
309.99
356.052
356.052
311.499
369.212
309.99
356.052
309.99
311.499
367.807
302.025
311.499
359.062
344.62
359.062
359.062
342.602
356.052
356.052
356.052
309.99
300.739
311.499
356.052
311.499
356.052
347.778
300.751
343.78
341.561
303.127
346.895
389.329
311.499
359.062
359.062
309.99
356.052
309.99
300.839
302.1
311.499
356.052
301.861
300.691
345.871
341.548
309.99
356.052
356.052
300.576
301.53
300.869
359.062
301.001
356.052
300.682
311.499
375.083
343.78
345.202
311.499
300.741
356.052
356.052
356.052
359.062
300.818
359.062
311.499
359.062
359.062
300.742
309.99
311.499
359.062
309.99
311.499
309.99
369.672
301.53
374.266
378.345
356.052
350.361
371.983
359.062
359.062
309.99
302.621
359.062
356.052
356.052
311.499
356.052
356.052
341.812
359.062
359.062
311.499
311.499
303.219
342.048
309.99
309.99
300.971
359.062
311.499
300.706
309.99
300.503
309.99
356.052
374.214
378.949
356.052
366.887
301.157
359.062
359.062
309.99
356.052
359.062
356.052
368.122
358.033
341.548
380.335
311.499
359.062
359.062
356.052
359.062
349.023
311.499
359.062
356.052
311.499
311.499
311.499
359.062
359.062
356.052
309.99
343.952
387.335
300.698
356.052
341.548
356.052
309.99
356.052
309.99
309.99
311.499
359.062
311.499
300.692
359.062
380.794
311.499
309.99
359.062
356.052
356.052
311.499
356.052
388.141
356.052
309.99
309.99
311.499
309.99
359.062
356.052
343.952
311.499
309.99
356.052
309.99
309.99
378.535
359.062
359.062
309.99
309.99
309.99
356.755
309.99
380.699
309.99
356.052
350.297
368.463
302.22
300.776
311.499
311.499
389.329
311.499
311.499
369.464
347.778
309.99
309.99
300.706
356.052
311.499
343.447
302.295
309.99
311.499
300.659
379.874
345.185
379.704
309.99
311.499
311.499
300.869
356.052
309.99
342.232
300.903
300.765
309.99
359.062
300.641
347.778
309.99
309.99
311.499
379.534
311.499
311.499
311.499
311.499
309.99
374.832
309.99
311.499
356.052
359.062
380.335
366.881
356.052
356.052
366.881
356.052
311.499
300.961
359.062
309.99
356.052
369.496
357.157
311.499
359.062
359.062
301.556
311.499
309.99
309.99
309.99
369.348
301.41
309.99
311.499
309.99
347.05
300.543
372.455
359.062
359.062
311.499
359.062
356.052
356.052
356.052
356.052
356.052
374.973
356.052
301.164
302.833
311.499
351.873
311.499
356.28
311.499
309.99
356.052
300.637
300.719
309.99
309.99
311.499
368.98
311.499
300.493
356.052
309.99
367.658
309.99
356.052
311.499
300.739
356.052
356.052
359.062
356.052
359.062
356.052
311.499
311.499
311.499
359.062
309.99
356.052
300.948
389.329
309.99
344.893
356.052
359.062
345.185
300.765
311.499
359.062
311.499
309.99
359.062
356.052
300.756
309.99
356.052
309.99
309.99
311.499
300.751
311.499
359.062
356.052
359.062
359.062
309.99
311.499
309.99
300.667
311.499
356.052
379.48
379.389
302.295
300.487
300.897
311.499
356.052
311.499
309.99
302.907
309.99
300.76
309.99
356.052
356.052
356.052
309.99
351.873
356.052
300.836
300.483
300.764
300.467
356.052
309.99
356.052
309.99
309.99
356.052
311.499
359.062
359.062
359.062
300.948
359.062
359.062
368.454
359.062
381.772
341.561
359.062
359.062
369.672
311.499
356.052
356.052
309.99
309.99
311.499
300.985
309.99
350.361
356.052
309.99
359.062
359.062
309.99
358.033
359.062
300.754
309.99
301.39
356.052
350.297
311.499
356.052
356.052
311.499
385.754
300.637
300.688
311.499
300.971
356.052
356.052
356.052
311.499
350.361
356.052
356.052
356.052
359.062
356.052
309.99
359.062
356.052
347.778
309.99
356.052
301.747
356.052
367.972
309.99
343.952
359.062
301.434
300.954
387.21
379.725
378.949
300.749
369.416
344.893
370.954
359.062
356.052
359.062
359.062
309.99
311.499
359.062
356.052
311.499
302.692
311.499
359.062
311.499
311.499
303.127
303.258
356.052
359.062
356.052
351.873
300.763
364.21
309.99
358.033
359.062
359.062
311.499
300.459
359.062
356.052
301.068
369.055
309.99
311.499
309.99
311.499
311.499
309.99
361.278
359.062
388.86
356.052
311.499
300.749
359.062
300.742
371.48
344.099
356.052
359.062
356.052
301.461
301.97
349.26
359.062
300.903
309.99
346.428
311.499
349.553
300.849
311.499
300.94
356.052
309.99
311.499
302.025
309.99
389.713
300.459
359.062
359.062
302.442
300.882
388.86
368.37
309.99
311.499
311.499
359.062
359.062
343.952
301.329
302.22
359.062
309.99
311.499
377.704
311.499
309.99
356.052
359.062
380.297
356.052
356.052
372.765
356.052
356.052
301.164
359.062
300.475
359.062
359.062
309.99
368.463
356.052
356.052
359.062
311.499
356.052
359.062
300.95
356.052
372.938
342.34
309.99
300.944
302.664
301.821
359.062
359.062
344.893
381.772
361.278
356.052
359.062
344.62
357.157
311.499
309.99
309.99
300.689
300.51
359.062
378.345
309.99
309.99
359.062
359.062
347.778
311.499
368.463
356.052
356.052
311.499
356.052
311.499
309.99
300.503
311.499
341.812
309.99
356.052
356.052
359.062
309.99
356.052
309.99
300.681
300.766
300.741
356.052
359.062
300.624
300.76
300.673
309.99
309.99
301.157
359.062
301.484
311.499
356.052
380.272
342.602
311.499
300.869
311.499
358.033
369.348
356.052
309.99
356.052
309.99
368.877
300.712
311.499
311.499
300.897
356.052
309.99
359.062
300.698
300.743
309.99
356.052
359.062
359.062
356.052
359.062
359.062
300.745
356.052
378.879
311.499
311.499
300.881
341.561
356.052
359.062
359.062
309.99
356.052
379.654
359.062
302.621
356.052
380.679
301.001
344.252
309.99
359.062
311.499
356.755
359.062
309.99
356.052
311.499
386.489
356.052
311.499
309.99
359.062
344.893
356.052
301.028
356.052
359.062
300.971
379.704
309.99
309.99
378.949
309.99
311.499
311.499
311.499
300.689
389.055
311.499
309.99
374.973
309.99
356.052
359.062
359.062
356.052
359.062
302.025
389.055
309.99
309.99
309.99
311.499
309.99
311.499
311.499
309.99
359.062
301.106
309.99
359.062
311.499
311.499
301.861
300.488
359.062
302.385
301.279
359.062
309.99
359.062
359.062
311.499
341.74
356.052
301.905
356.052
300.95
300.69
309.99
300.94
311.499
311.499
311.499
300.751
300.497
344.099
359.062
379.946
302.22
300.624
356.052
311.499
301.64
379.725
311.499
309.99
311.499
301.53
311.499
345.686
309.99
301.157
356.052
311.499
359.062
309.99
300.94
303.258
356.052
359.062
309.99
347.05
356.052
311.499
302.385
311.499
356.052
309.99
300.591
375.083
348.496
311.499
311.499
309.99
359.062
359.062
359.062
300.985
309.99
311.499
379.534
356.052
311.499
300.611
309.99
309.99
311.499
356.052
309.99
359.062
309.99
356.052
356.052
300.95
309.99
356.052
366.881
309.99
359.062
374.885
373.597
373.162
356.052
346.895
359.062
311.499
311.499
381.632
301.248
380.397
309.99
311.499
359.062
300.961
311.499
356.052
311.499
372.089
367.847
356.052
343.14
309.99
309.99
311.499
359.062
311.499
359.062
311.499
311.499
356.755
359.062
342.048
300.587
300.689
309.99
300.719
359.062
311.499
356.052
301.157
356.052
300.933
342.048
356.052
309.99
311.499
359.062
300.739
356.052
302.175
356.052
359.062
359.062
359.062
311.499
356.052
359.062
372.089
359.062
359.062
311.499
356.052
311.499
311.499
309.99
311.499
309.99
311.499
356.052
359.062
369.672
309.99
309.99
346.247
311.499
300.76
300.954
311.499
356.052
356.052
309.99
309.99
311.499
300.76
374.661
300.487
359.062
357.157
356.052
311.499
356.052
300.637
359.062
311.499
356.052
359.062
309.99
356.052
309.99
311.499
309.99
382.08
379.874
300.715
311.499
311.499
311.499
309.99
380.761
309.99
300.719
356.052
300.862
309.99
311.499
386.788
309.99
309.99
388.934
368.463
375.541
300.661
311.499
363.129
356.052
378.949
359.062
301.068
311.499
356.052
359.062
300.944
359.062
356.052
356.052
311.499
309.99
359.062
374.973
359.062
311.499
359.062
359.062
301.41
309.99
309.99
309.99
356.052
359.062
359.062
359.062
309.99
311.499
309.99
300.862
356.052
341.845
356.052
343.14
359.062
344.252
364.21
300.562
300.903
311.499
311.499
359.062
359.062
355.724
356.052
356.052
311.499
376.013
309.99
309.99
311.499
359.062
359.062
301.434
309.99
302.025
387.335
309.99
345.202
356.052
300.802
300.897
311.499
311.499
309.99
309.99
309.99
303.258
311.499
311.499
369.388
311.499
356.052
309.99
356.052
356.052
369.348
302.385
300.985
380.183
309.99
356.052
359.062
345.202
359.062
311.499
356.052
368.98
301.587
300.479
389.254
356.052
356.052
373.128
311.499
311.499
311.499
381.772
300.534
300.599
311.499
380.183
379.704
300.897
300.818
309.99
301.248
300.897
309.99
359.062
300.985
300.467
301.248
356.052
356.052
343.025
356.052
356.052
311.499
380.214
375.59
356.052
356.052
356.052
300.763
300.688
311.499
356.052
301.028
311.499
311.499
311.499
309.99
356.052
341.812
359.062
311.499
364.21
311.499
359.062
311.499
370.312
372.089
356.052
309.99
359.062
359.062
309.99
359.062
300.684
356.052
300.697
309.99
309.99
380.272
309.99
345.686
359.062
311.499
356.052
311.499
311.499
309.99
309.99
309.99
356.052
309.99
373.005
359.062
300.499
359.062
359.062
374.214
311.499
356.052
368.454
356.052
300.985
359.062
343.14
309.99
311.499
311.499
359.062
348.496
300.478
349.26
356.052
309.99
359.062
356.052
359.062
356.052
388.311
356.052
344.62
300.69
302.752
341.812
359.062
311.499
311.499
359.062
356.052
309.99
300.624
309.99
356.052
356.052
311.499
359.062
342.592
359.062
300.503
311.499
311.499
300.763
309.99
301.758
309.99
311.499
356.052
381.048
373.049
368.122
359.062
356.052
309.99
356.052
309.99
300.624
356.052
311.499
309.99
359.062
359.062
300.689
356.052
356.052
309.99
341.812
369.496
356.052
356.052
359.062
356.052
359.062
356.052
356.052
309.99
359.062
359.062
356.052
359.062
309.99
300.698
309.99
309.99
356.052
359.062
311.499
356.052
356.052
381.933
301.068
311.499
356.052
388.311
309.99
311.499
359.062
356.052
359.062
359.062
356.052
311.499
356.052
359.062
309.99
301.164
356.052
359.062
311.499
311.499
343.78
359.062
346.247
356.052
380.618
311.499
309.99
309.99
309.99
309.99
356.052
311.499
311.499
302.683
356.052
359.062
343.78
359.062
309.99
311.499
300.862
301.028
356.052
356.052
356.052
311.499
356.052
300.488
359.062
311.499
356.052
303.104
300.751
347.642
382.238
368.37
311.499
356.052
356.052
359.062
311.499
342.048
311.499
356.052
379.704
309.99
301.335
359.062
344.893
311.499
309.99
309.99
300.881
302.442
341.845
309.99
300.821
343.447
356.052
311.499
300.862
345.185
356.052
370.954
311.499
311.499
343.14
301.212
309.99
356.052
309.99
300.688
380.699
359.062
356.052
309.99
343.78
359.062
311.499
356.052
311.499
311.499
383.699