<?xml version="1.0"?>
<VTKFile type="PolyData" version="0.1" byte_order="LittleEndian">
  <PolyData>
    <Piece NumberOfPoints="50000" NumberOfVerts="50000" NumberOfLines="0" NumberOfStrips="0" NumberOfPolys="0">
      <Points>
        <DataArray type="Float32" NumberOfComponents="3" format="ascii">
0.346592 0.00725897 0
-0.329264 0.00248061 0
0.335837 -0.00240695 0
0.350697 -0.00197007 0
-0.286483 0.00542528 0
-0.240692 0.00185562 0
0.115297 -0.02253 0
-0.296042 -2.66679e-05 0
0.101726 -0.0175745 0
-0.0234302 0.00776033 0
0.263417 -0.0110401 0
0.334528 0.00660279 0
-0.192963 0.00608811 0
-0.137037 -0.0212223 0
-0.3597 0.00196297 0
0.271595 0.0105056 0
-0.050296 -0.00188733 0
0.347835 0.00129194 0
0.131825 0.00116082 0
-0.329696 0.00320642 0
-0.345433 0.00478091 0
0.301419 0.00573774 0
-0.340955 0.00220296 0
0.339134 -0.000146686 0
0.216008 -0.0111134 0
0.2526 0.0111099 0
-0.338109 -0.00656239 0
0.348296 -0.00307839 0
-0.242081 0.0203682 0
-0.355925 0.00787954 0
-0.267925 0.010462 0
-0.249074 -0.0143449 0
0.344987 0.00056182 0
0.347264 -0.00103952 0
0.066068 0.00439408 0
0.353114 -0.00155367 0
0.107153 0.00122769 0
-0.352964 0.00220312 0
-0.330327 -0.00455326 0
-0.367147 -0.0021759 0
0.254627 0.0113182 0
0.269157 0.00525 0
-0.337152 -0.00203009 0
0.342801 0.000481026 0
0.35521 0.00101533 0
-0.347166 0.00759165 0
0.337776 0.00416695 0
0.173148 -0.0130495 0
0.33346 0.000172551 0
0.341399 2.88466e-05 0
0.14309 0.0186082 0
-0.340361 -0.00087946 0
-0.236655 0.00819612 0
0.336965 0.00242281 0
-0.335087 0.00216537 0
-0.357188 0.00229686 0
0.34701 -0.00121841 0
0.140051 0.0100359 0
0.259487 0.00649798 0
0.358257 -0.00435297 0
0.292524 0.004076 0
0.350713 0.00220098 0
0.0772455 -0.0279312 0
0.35821 -0.00162534 0
-0.115459 0.0146813 0
-0.334072 0.00131687 0
0.340456 -0.000872276 0
0.349759 -0.00063752 0
0.361775 0.00343182 0
0.250432 0.000792045 0
-0.338013 0.00291254 0
0.34 0.00317734 0
0.185746 0.00101805 0
0.189807 0.00588216 0
0.161862 0.00444118 0
-0.342976 -0.00208004 0
0.297214 0.0107821 0
-0.325619 0.00384234 0
0.262152 0.00592246 0
-0.356413 0.00151807 0
-0.179651 -0.0291312 0
-0.349167 0.00391616 0
0.321454 0.00437279 0
-0.339412 0.000676665 0
0.357816 -0.00415653 0
-0.340283 0.00298726 0
0.358429 -0.00407504 0
-0.153139 -0.00729739 0
-0.148164 0.019909 0
-0.343225 -0.00603748 0
0.336946 0.00572259 0
-0.335733 -0.000419622 0
0.338599 -0.00158028 0
-0.231438 0.0169534 0
-0.0349625 -0.018767 0
-0.302038 0.00465111 0
0.337999 0.00749095 0
-0.346121 0.00293063 0
-0.365113 0.00645351 0
-0.362097 -0.000760062 0
-0.303585 -0.00639815 0
-0.336991 -0.00473989 0
0.360771 -0.000561001 0
-0.146004 -0.0176757 0
0.363325 -0.000446724 0
0.297398 0.0109321 0
0.21891 0.00579477 0
0.0174866 0.00683783 0
0.333918 0.00391105 0
-0.341526 -0.00386526 0
-0.257541 0.0170046 0
-0.346478 0.00285261 0
-0.295694 0.0091678 0
253.961 367.368 0
0.227769 0.00636046 0
-0.341468 0.00319646 0
-0.354097 0.00392983 0
6.52154 8.92122 0
-0.343974 0.00154517 0
-0.0175344 -0.0073918 0
0.348427 -0.00119987 0
-0.331817 -0.00313612 0
0.235141 -0.00295664 0
-0.31725 0.00647694 0
0.341987 -0.000563672 0
0.332402 -0.000785553 0
0.109208 0.0205901 0
0.351296 0.00382798 0
-0.307621 -0.0058042 0
0.265138 -0.00073726 0
0.35333 -0.00269298 0
0.350494 -0.000324201 0
-0.363633 0.000763451 0
-0.303356 0.00358229 0
0.358964 -0.00151611 0
0.341187 -0.000851431 0
0.328994 -0.00236473 0
-0.0548083 0.00277122 0
0.275057 -0.0120915 0
0.267611 -0.0101516 0
0.274941 -0.012288 0
0.326288 0.00830808 0
0.352605 -0.00287548 0
-0.0819366 -0.0119009 0
-0.352528 0.00588529 0
0.234113 -0.019239 0
-0.225793 0.0172708 0
-0.347765 0.00181876 0
-0.248662 -0.0169597 0
-0.348861 0.00326982 0
0.266085 0.00639916 0
0.338901 0.0019941 0
-0.106001 -0.0100477 0
0.275953 -0.00878276 0
0.274409 0.0072335 0
0.336067 0.0033852 0
0.230103 -0.00825793 0
-0.341864 0.00249008 0
-0.147609 -0.0050514 0
0.351609 -0.000291541 0
0.234914 -0.00136352 0
-0.310258 -0.00246414 0
-0.335891 0.00226177 0
-0.349237 0.00231794 0
-0.0904066 0.00863882 0
0.270834 -0.0053802 0
0.306129 -0.00475464 0
0.310071 0.00320544 0
0.259278 0.00684208 0
-0.143609 0.000564782 0
0.362133 -0.00417541 0
-0.334812 0.00276067 0
-0.0795644 -0.00499602 0
0.35001 0.00376251 0
-0.0640185 -0.00290372 0
-0.270393 0.0135576 0
-0.335718 0.00222523 0
-0.204314 -0.00939799 0
-0.340354 -0.00191804 0
-0.341843 -0.00557811 0
0.335552 -4.95967e-05 0
-0.345759 0.00559114 0
-0.340506 0.00472915 0
0.346431 0.00462044 0
0.337961 -0.000760282 0
0.2613 -0.0148137 0
0.362906 -0.00291536 0
0.359068 0.000397258 0
0.348175 -0.00314988 0
0.038853 0.0254213 0
0.354108 -0.00312228 0
0.286754 -0.00779843 0
-0.230818 -0.0157023 0
0.31916 0.00554671 0
-0.316393 0.00553577 0
0.335491 0.0015225 0
-0.281922 0.0101417 0
-0.300421 0.00461971 0
-0.337102 0.00338281 0
0.339722 0.00427517 0
-0.225255 0.0163313 0
0.35813 0.00235682 0
0.310661 -0.0046673 0
-0.0709062 -0.00604137 0
0.362718 -0.0042627 0
-0.332276 -0.00681441 0
0.0471181 0.0411056 0
0.143784 -0.00567626 0
-0.300873 0.00925662 0
-0.212036 -0.00868496 0
0.332206 0.000520082 0
-0.147956 -0.017974 0
0.313039 -0.00312069 0
-0.290781 0.00952725 0
-0.199379 -0.0135345 0
-0.349166 0.00527886 0
-0.34451 0.00668271 0
0.344336 -0.000229984 0
-0.354123 -0.00115685 0
-0.041712 0.0180977 0
-0.272436 0.010138 0
-0.35342 0.00317917 0
-0.328131 -0.00545118 0
0.359698 -0.0025182 0
0.127339 0.0212572 0
-0.335921 0.0026694 0
0.361577 0.000996428 0
0.346904 -0.000700447 0
-0.29857 0.00844608 0
-0.35203 -0.000467736 0
-0.346437 -0.00325482 0
0.337479 0.00367987 0
0.175844 0.0203326 0
-0.0535587 0.0129399 0
-0.358538 0.00386052 0
-0.30869 0.00511696 0
0.26535 -0.0150459 0
-0.271731 -0.00380118 0
-0.342626 0.00291208 0
0.210193 -0.00249256 0
0.354937 -1.43316e-05 0
-0.314613 -0.00580383 0
-0.346582 0.00294507 0
-0.200513 -0.0120222 0
0.173341 0.00590933 0
0.309935 0.00361934 0
-0.327218 0.00609859 0
0.347194 -0.000698234 0
0.357439 0.00230763 0
0.204967 0.0108235 0
0.213819 0.00379285 0
-0.325876 0.00439587 0
0.335425 -0.00251 0
-0.154271 -0.00805425 0
-0.315249 0.00704285 0
0.335931 -0.000225636 0
-0.305557 0.00686922 0
0.297318 0.00776004 0
0.128859 0.0201612 0
0.185951 0.000261815 0
0.357278 0.000803579 0
-0.325757 0.00424723 0
0.0652576 -0.00706732 0
0.0326377 -0.0119877 0
-0.232392 0.00298104 0
-0.342172 0.00095302 0
-0.336953 0.00255546 0
-0.334621 -0.0011661 0
0.344129 -0.000868924 0
0.341466 -0.000676474 0
0.351742 -0.000805075 0
-0.345243 -0.00243008 0
0.225679 0.00267076 0
0.0186028 0.0107423 0
-0.360549 0.00437004 0
-0.350568 0.00200933 0
0.334221 -0.00032448 0
-0.335069 0.00262793 0
0.331844 0.00561845 0
-0.339961 -0.0012155 0
-0.329645 -8.52231e-05 0
-0.152635 -0.0196736 0
-0.345361 0.0021564 0
0.32632 -0.00186768 0
-0.293498 0.00925962 0
-0.330618 -0.00273202 0
-0.131224 0.0171307 0
-0.344353 0.00285062 0
-0.349781 0.00331004 0
0.294322 -0.00264297 0
-0.122823 0.00586612 0
0.343646 -0.000796755 0
0.351183 -0.00249 0
0.223881 0.0119695 0
0.356707 0.0028663 0
0.338668 0.00534947 0
0.355329 0.00364466 0
-0.236671 0.0200642 0
-0.323461 0.00180545 0
-0.359598 0.000837049 0
0.364402 0.000798199 0
-0.0486865 0.006374 0
0.342494 -0.00150695 0
0.334276 0.00284348 0
0.352672 -0.000632276 0
0.0604075 0.0105078 0
-0.181442 0.021519 0
0.296962 0.00463932 0
-0.0416061 0.000375109 0
-0.168957 0.00806238 0
-0.282828 0.00995482 0
0.343541 0.00572976 0
-0.250403 0.0125214 0
0.317948 -0.00459496 0
0.262028 -0.00405869 0
-0.358441 0.00543662 0
0.279497 -0.0126116 0
0.360671 -0.00445932 0
0.322501 -0.00257689 0
0.344675 0.00637681 0
-0.349696 0.00465796 0
-0.0766968 0.0129547 0
0.351691 0.00179914 0
0.350075 -0.000799563 0
0.161501 0.0213095 0
-0.333707 -0.000340195 0
-0.327363 0.00436631 0
0.360385 0.000438346 0
-0.334626 -0.00255631 0
0.347607 0.00215162 0
0.350064 -0.00208266 0
0.167608 -0.0200834 0
0.335324 0.00303869 0
-0.343453 0.00289582 0
-0.293813 -0.000483232 0
-0.19732 -0.00213567 0
0.0277332 -0.00661306 0
0.0417726 -0.0251593 0
-0.315049 0.00294115 0
0.155911 -0.0223055 0
-0.0367242 0.0348389 0
-0.354635 0.00527812 0
-0.253408 0.0117427 0
-0.346189 0.00387556 0
-0.143464 -0.0116149 0
0.349878 0.00591803 0
-0.246065 0.0131853 0
-0.350425 1.23771e-05 0
-55.7788 230.714 0
0.349097 -0.00449118 0
0.348159 -0.000932869 0
-0.285542 0.0121966 0
0.338518 0.00257003 0
0.321138 -0.000841542 0
-499.747 -893.717 0
0.106744 0.0126012 0
-0.346831 0.00325582 0
-0.288356 -0.0020662 0
0.345675 0.00306295 0
3.54039 -7.29327 0
0.32718 0.00431587 0
-0.339455 -0.00509423 0
-0.216713 0.000278507 0
-0.344737 -0.00275036 0
-0.351449 0.0058493 0
0.3431 -0.000838334 0
-0.356896 -0.00116397 0
-0.30943 0.00792801 0
0.269229 0.010823 0
-0.336333 0.000120595 0
-0.280301 0.0122093 0
-0.310984 0.00710641 0
0.346654 0.00365561 0
0.312574 -0.00594975 0
-0.20706 0.0164011 0
0.356407 -0.00175005 0
-0.347006 -0.004775 0
-0.322751 -0.00305103 0
-0.350747 0.0011605 0
0.030348 -0.0266711 0
-0.337693 -0.00451232 0
0.341962 0.00369029 0
-0.344147 0.00323301 0
-0.34232 0.00178501 0
-0.0843467 0.0130385 0
0.223893 0.0118074 0
-0.111895 0.031343 0
0.0736912 0.0177718 0
-0.347275 0.00343625 0
-0.0627863 0.00317289 0
-0.347921 -0.000750739 0
-0.349705 0.00479512 0
0.334212 -0.00496269 0
0.294384 0.00814357 0
-0.327145 0.00558307 0
0.310622 0.00423441 0
0.308496 0.00122081 0
-0.333683 0.00270706 0
-0.184193 -0.0060059 0
0.244037 -0.0147319 0
-0.33411 0.000802683 0
0.29556 -0.00758613 0
0.135339 -0.00405468 0
-0.343375 -0.000767523 0
0.321078 -0.000466849 0
0.33776 -0.00193575 0
0.343035 -0.00399348 0
0.349461 -0.00127845 0
0.35538 8.72522e-05 0
0.336844 0.00597471 0
-0.345645 0.00246561 0
0.24853 0.00837466 0
-0.285536 -0.0042421 0
0.163219 0.0230195 0
-0.325418 0.00243078 0
-0.11624 -0.00471315 0
-0.269857 0.0101779 0
0.0985499 -0.0119527 0
-0.352833 0.00344554 0
0.33727 -0.00085469 0
-0.0950577 0.0254644 0
0.12077 0.0134439 0
-0.357575 0.00299497 0
0.339738 0.00167962 0
0.35017 -0.000520166 0
0.334441 0.00747556 0
0.357608 -0.00394386 0
-0.340924 0.00288895 0
[...]
      <PointData Scalars="T">
        <DataArray type="Float32" Name="T" format="ascii" NumberOfComponents="1">
313.564
416.057
313.155
313.155
416.057
617.073
313.155
428.624
313.155
416.057
313.155
313.564
416.057
428.624
416.057
313.564
428.624
303.026
302.269
416.057
416.057
313.564
416.057
313.155
313.155
313.564
428.624
313.155
416.057
416.057
416.057
428.624
303.235
313.155
313.564
313.155
302.301
416.057
428.624
428.624
313.564
313.564
428.624
304.553
301.226
416.057
313.564
313.155
313.865
315.49
313.564
428.624
416.057
313.564
416.057
416.057
313.155
313.564
313.564
313.155
313.564
313.564
313.155
313.155
416.057
694.479
313.155
313.155
313.564
301.74
416.057
313.564
301.226
313.564
313.564
428.624
313.564
416.057
313.564
630.716
428.624
416.057
313.564
625.049
313.155
416.057
313.155
428.624
416.057
428.624
313.564
428.624
313.155
416.057
428.624
416.057
313.564
416.057
416.057
428.624
428.624
428.624
313.155
428.624
313.155
313.564
313.564
313.564
313.564
428.624
416.057
416.057
416.057
313.564
313.564
416.057
416.057
313.564
638.605
428.624
313.155
428.624
313.155
416.057
313.155
313.155
313.564
313.564
428.624
313.155
313.155
313.155
718.154
416.057
313.155
313.155
313.155
416.057
313.155
313.155
313.155
313.564
313.155
428.624
416.057
313.155
416.057
617.599
428.624
416.057
313.564
313.564
428.624
313.155
313.564
313.564
313.155
416.057
428.624
313.155
313.155
428.624
416.057
416.057
416.057
313.155
313.155
313.564
313.564
638.589
313.155
416.057
428.624
313.564
428.624
416.057
416.057
428.624
428.624
428.624
313.155
416.057
416.057
313.564
313.155
313.155
313.155
306.715
313.155
313.564
313.155
313.155
428.624
313.564
416.057
306.113
416.057
416.057
416.057
313.564
416.057
313.564
313.155
428.624
313.155
428.624
313.564
313.155
416.057
428.624
303.989
428.624
313.155
416.057
428.624
416.057
416.057
313.155
428.624
416.057
416.057
416.057
428.624
313.155
313.564
416.057
301.224
313.155
416.057
428.624
428.624
313.564
313.564
416.057
416.057
416.057
313.155
428.624
416.057
313.155
313.155
428.624
416.057
428.624
313.564
313.564
416.057
313.155
313.564
313.564
313.564
416.057
313.155
428.624
416.057
313.155
416.057
313.564
313.564
309.48
301.588
416.057
313.155
313.155
416.057
664.758
416.057
428.624
313.155
313.155
313.155
428.624
313.564
313.564
416.057
416.057
313.155
416.057
313.564
428.624
428.624
428.624
416.057
313.155
416.057
428.624
416.057
416.057
416.057
313.155
416.057
313.155
313.155
313.564
313.564
313.564
313.564
416.057
618.494
648.847
301.74
416.057
313.155
313.564
313.155
313.564
416.057
313.564
610.915
416.057
416.057
313.564
416.057
313.155
313.155
416.057
313.155
313.155
313.155
313.564
416.057
416.057
315.155
313.155
313.564
428.624
416.057
305.621
428.624
313.564
313.155
313.155
313.564
416.057
428.624
428.624
313.155
313.155
416.057
313.155
416.057
416.057
416.057
416.057
428.624
313.564
416.057
695.214
416.057
313.155
313.155
416.057
313.564
313.155
428.624
313.564
416.057
428.624
313.564
313.155
313.564
428.624
623.43
428.624
416.057
313.155
428.624
416.057
313.564
653.715
416.057
416.057
313.564
313.155
416.057
313.155
428.624
428.624
695.797
313.155
428.624
313.564
416.057
616.625
416.057
313.564
416.057
313.564
416.057
416.057
428.624
416.057
313.155
313.564
416.057
313.564
302.301
416.057
428.624
313.155
643.402
313.155
313.155
428.624
313.155
313.155
313.155
313.155
313.772
313.564
416.057
313.564
428.624
313.564
416.057
428.624
416.057
313.155
416.057
313.155
416.057
313.564
416.057
310.658
313.155
313.564
313.155
416.057
416.057
313.155
416.057
313.564
416.057
313.564
681.64
428.624
416.057
416.057
313.564
302.882
416.057
313.155
604.697
428.624
428.624
416.057
428.624
313.564
313.155
428.624
313.564
428.624
428.624
313.155
313.155
428.624
416.057
628.581
428.624
302.511
428.624
308.26
416.057
428.624
313.155
313.564
428.624
428.624
416.057
416.057
313.564
623.621
313.155
313.155
313.564
416.057
416.057
416.057
313.155
313.564
641.461
428.624
428.624
416.057
302.383
313.564
313.155
301.276
416.057
313.564
313.564
301.185
416.057
313.564
313.155
428.624
313.155
416.057
416.057
416.057
428.624
428.624
428.624
428.624
428.624
313.155
313.155
313.155
313.564
313.155
313.564
313.564
428.624
313.564
416.057
313.155
313.564
416.057
313.564
416.057
633.885
416.057
632.01
313.564
313.155
313.564
313.155
313.155
313.155
416.057
313.564
313.564
602.888
313.564
614.698
416.057
428.624
313.155
313.155
416.057
416.057
428.624
428.624
428.624
313.564
313.564
313.343
313.564
428.624
416.057
313.564
416.057
303.989
313.564
428.624
416.057
313.155
416.057
313.564
313.564
428.624
313.564
428.624
313.155
697.423
416.057
302.211
313.155
428.624
428.624
660.233
416.057
416.057
313.564
313.155
313.155
301.946
313.564
428.624
629.351
428.624
428.624
416.057
313.564
313.155
416.057
313.564
428.624
301.243
313.564
309.081
416.057
313.564
428.624
691.252
313.564
313.155
428.624
313.564
416.057
313.155
313.155
313.564
313.155
428.624
428.624
416.057
710.052
313.564
428.624
313.155
428.624
428.624
313.564
313.155
428.624
428.624
416.057
416.057
313.155
313.155
416.057
428.624
428.624
313.564
313.155
416.057
416.057
313.155
313.155
313.564
313.564
416.057
428.624
428.624
428.624
428.624
313.564
416.057
313.564
313.564
428.624
416.057
313.155
313.155
428.624
416.057
313.155
428.624
428.624
416.057
313.155
428.624
416.057
313.564
416.057
416.057
313.155
313.564
416.057
313.564
313.155
618.051
313.564
313.155
416.057
416.057
313.155
313.155
313.155
313.564
313.564
428.624
428.624
416.057
416.057
313.564
416.057
428.624
303.041
313.564
416.057
416.057
416.057
313.155
313.564
313.564
313.564
416.057
313.155
313.155
664.806
416.057
313.564
313.155
313.564
313.564
313.564
416.057
313.564
313.564
313.155
416.057
313.564
416.057
313.155
313.564
313.155
313.564
313.155
416.057
313.343
667.201
313.564
416.057
416.057
416.057
313.155
428.624
313.564
416.057
313.155
313.564
428.624
313.155
655.43
428.624
428.624
416.057
416.057
416.057
313.155
313.155
313.155
313.155
313.155
618.152
313.564
416.057
428.624
313.155
313.155
416.057
302.511
416.057
313.564
416.057
416.057
416.057
428.624
428.624
302.969
416.057
313.564
416.057
428.624
416.057
428.624
428.624
313.155
313.564
313.155
416.057
428.624
416.057
618.494
428.624
416.057
428.624
313.564
416.057
428.624
313.155
313.155
313.155
416.057
416.057
428.624
313.564
428.624
302.383
416.057
428.624
428.624
313.564
313.155
313.564
305.576
313.155
416.057
416.057
313.155
416.057
313.564
416.057
313.564
416.057
428.624
313.564
416.057
304.616
416.057
416.057
313.155
302.269
428.624
313.564
313.155
303.642
313.564
416.057
428.624
428.624
313.564
416.057
305.323
313.564
313.155
313.155
428.624
416.057
306.784
416.057
416.057
313.155
313.155
313.564
313.155
416.057
428.624
313.564
416.057
313.564
313.564
416.057
416.057
313.564
692.665
313.155
313.155
416.057
416.057
313.155
302.969
416.057
428.624
428.624
313.564
304.22
631.393
416.057
416.057
627.872
428.624
313.155
416.057
313.155
416.057
313.155
313.155
634.792
313.155
416.057
313.564
313.155
416.057
428.624
313.564
313.155
313.564
313.564
313.564
313.564
416.057
313.564
313.155
428.624
313.155
313.564
416.057
313.155
313.155
313.564
416.057
416.057
428.624
313.155
428.624
313.155
428.624
416.057
416.057
313.564
428.624
682.223
428.624
313.155
678.837
416.057
313.155
313.564
428.624
428.624
313.155
416.057
313.155
313.155
428.624
313.564
428.624
313.564
313.155
313.564
313.155
313.564
313.564
416.057
313.564
313.155
313.155
416.057
313.155
428.624
416.057
428.624
313.155
313.564
416.057
428.624
416.057
313.155
416.057
416.057
313.155
313.155
313.564
313.564
416.057
416.057
313.155
416.057
313.564
416.057
428.624
304.957
428.624
313.155
416.057
428.624
416.057
416.057
416.057
628.051
428.624
416.057
416.057
313.564
645.021
313.155
313.155
313.155
313.155
313.564
416.057
313.155
416.057
313.564
416.057
313.564
317.763
428.624
313.564
416.057
313.155
313.564
313.155
428.624
313.155
416.057
302.446
428.624
428.624
313.564
428.624
416.057
416.057
428.624
313.155
313.564
313.564
313.564
428.624
313.155
428.624
313.155
306.624
313.564
313.564
313.564
313.155
313.155
428.624
313.564
313.564
428.624
416.057
313.155
416.057
301.122
416.057
428.624
416.057
623.621
428.624
416.057
313.564
428.624
313.564
416.057
313.155
416.057
313.564
416.057
416.057
313.564
313.564
416.057
313.155
313.564
313.155
303.989
428.624
416.057
428.624
715.105
313.155
416.057
310.269
416.057
416.057
313.155
313.155
416.057
313.564
313.155
315.275
313.155
416.057
313.155
313.564
416.057
416.057
416.057
428.624
416.057
313.155
416.057
313.155
428.624
310.384
313.155
313.564
416.057
428.624
428.624
416.057
313.155
313.564
428.624
313.155
302.017
428.624
428.624
313.155
416.057
303.026
313.155
313.564
428.624
416.057
416.057
416.057
313.564
680.306
313.564
619.418
416.057
313.155
313.564
313.564
313.155
313.564
428.624
663.696
428.624
416.057
313.155
313.564
313.564
313.564
313.564
313.564
428.624
416.057
416.057
416.057
428.624
416.057
416.057
310.852
313.155
313.155
313.155
313.155
416.057
313.155
416.057
303.235
428.624
416.057
313.564
416.057
697.423
313.155
700.744
313.155
313.155
313.155
313.155
313.564
313.564
313.155
313.564
428.624
301.243
617.017
313.564
313.564
313.155
428.624
313.155
428.624
313.564
313.564
313.564
313.564
416.057
313.155
416.057
313.564
313.155
313.155
683.826
683.871
682.823
313.155
313.155
428.624
313.564
416.057
313.564
313.155
428.624
416.057
617.913
313.155
313.564
416.057
313.155
416.057
313.564
416.057
416.057
603.805
416.057
313.155
313.155
428.624
416.057
416.057
416.057
313.155
428.624
313.564
416.057
313.564
313.564
416.057
416.057
313.564
416.057
313.155
313.155
313.155
416.057
304.279
313.155
428.624
416.057
313.155
416.057
313.155
416.057
416.057
313.155
428.624
428.624
313.155
313.155
313.564
313.155
313.564
428.624
313.564
313.564
416.057
416.057
313.155
416.057
313.564
301.226
632.159
416.057
313.564
683.367
618.768
301.865
313.155
691.607
416.057
313.155
416.057
645.021
428.624
428.624
416.057
313.155
313.155
416.057
416.057
313.155
428.624
313.155
313.564
313.564
416.057
416.057
313.155
618.768
313.564
416.057
313.564
313.155
617.061
313.155
313.155
428.624
416.057
428.624
428.624
416.057
416.057
416.057
416.057
313.564
313.155
313.155
416.057
313.155
416.057
416.057
313.155
416.057
416.057
313.564
416.057
428.624
313.155
428.624
428.624
313.564
416.057
313.564
313.564
313.155
313.155
416.057
313.564
304.22
416.057
416.057
313.564
416.057
416.057
308.439
313.155
313.155
428.624
313.155
416.057
305.555
313.155
672.418
416.057
416.057
313.155
313.155
416.057
416.057
416.057
428.624
313.564
428.624
313.155
428.624
428.624
315.49
313.564
313.155
428.624
313.564
313.155
313.564
639.021
313.155
664.806
428.624
416.057
416.057
623.43
428.624
428.624
313.564
313.564
428.624
416.057
416.057
313.155
416.057
416.057
416.057
428.624
428.624
313.155
313.155
313.564
416.057
313.564
313.564
313.155
428.624
313.155
309.483
313.564
302.616
313.564
416.057
661.393
673.281
416.057
416.057
313.155
428.624
428.624
313.564
416.057
428.624
416.057
627.079
416.057
416.057
428.624
313.155
428.624
428.624
416.057
428.624
416.057
313.155
428.624
416.057
313.155
313.155
313.155
428.624
428.624
416.057
313.564
416.057
428.624
307.047
416.057
416.057
416.057
313.564
416.057
313.564
313.564
313.155
428.624
313.155
304.445
428.624
671.387
313.155
313.564
428.624
416.057
416.057
313.155
416.057
428.624
416.057
313.564
313.564
313.155
313.564
428.624
416.057
416.057
313.155
313.564
416.057
313.564
313.564
428.624
428.624
428.624
313.564
313.564
313.564
416.057
313.564
666.275
313.564
416.057
416.057
616.625
313.564
313.155
313.155
313.155
428.624
313.155
313.155
638.661
416.057
313.564
313.564
313.845
416.057
313.155
416.057
313.155
313.564
313.155
302.308
428.624
416.057
428.624
313.564
313.155
313.155
313.155
416.057
313.564
416.057
313.564
313.155
313.564
428.624
311.988
416.057
313.564
313.564
313.155
428.624
313.155
313.155
313.155
313.155
313.564
663.696
313.564
313.155
416.057
428.624
428.624
613.499
416.057
416.057
614.42
416.057
313.155
313.155
428.624
313.564
416.057
416.057
416.057
313.155
428.624
428.624
313.564
313.155
313.564
313.564
313.564
616.625
313.564
313.564
313.155
313.564
416.057
304.919
652.205
428.624
428.624
313.155
428.624
416.057
416.057
416.057
416.057
416.057
682.823
416.057
313.564
313.564
313.155
416.057
313.155
416.057
313.155
313.564
416.057
301.539
313.838
313.564
313.564
313.155
628.581
313.155
302.18
416.057
313.564
416.057
313.564
416.057
313.155
313.155
416.057
416.057
428.624
416.057
428.624
416.057
313.155
313.155
313.155
428.624
313.564
416.057
313.155
428.624
313.564
416.057
416.057
428.624
416.057
313.155
313.155
428.624
313.155
313.564
428.624
416.057
313.155
313.564
416.057
313.564
313.564
313.155
313.155
313.155
428.624
416.057
428.624
428.624
313.564
313.155
313.564
302.29
313.155
416.057
680.306
428.624
313.155
302.047
313.155
313.155
416.057
313.155
313.564
313.564
313.564
313.155
313.564
416.057
416.057
416.057
313.564
416.057
416.057
313.155
301.557
313.155
301.058
416.057
313.564
416.057
313.564
313.564
416.057
313.155
428.624
428.624
428.624
313.155
428.624
428.624
416.057
428.624
428.624
416.057
428.624
428.624
639.021
313.155
416.057
416.057
313.564
313.564
313.155
313.155
313.564
416.057
416.057
313.564
428.624
428.624
313.564
416.057
428.624
314.223
313.564
313.155
416.057
416.057
313.155
416.057
416.057
313.155
428.624
302.211
314.026
313.155
313.155
416.057
416.057
416.057
313.155
416.057
416.057
416.057
416.057
428.624
416.057
313.564
428.624
416.057
416.057
313.564
416.057
313.155
416.057
631.327
313.564
416.057
428.624
313.155
313.155
428.624
428.624
674.103
313.155
625.088
416.057
625.088
428.624
416.057
428.624
428.624
313.564
313.155
428.624
416.057
313.155
313.564
313.155
428.624
313.155
313.155
313.564
313.564
416.057
428.624
416.057
416.057
318.036
416.057
313.564
416.057
428.624
428.624
313.155
301.093
428.624
416.057
313.155
638.589
313.564
313.155
313.564
313.155
313.155
313.564
416.057
428.624
428.624
416.057
313.155
313.155
428.624
314.47
629.351
416.057
416.057
428.624
416.057
313.564
313.155
416.057
428.624
313.564
313.564
416.057
313.155
416.057
313.155
313.155
313.155
416.057
313.564
313.155
313.155
313.564
428.624
301.119
428.624
428.624
313.155
313.155
428.624
416.057
313.564
313.155
313.155
428.624
428.624
416.057
313.564
313.564
428.624
313.564
313.155
663.696
313.155
313.564
416.057
428.624
428.624
416.057
416.057
637.899
416.057
416.057
313.564
428.624
301.557
428.624
428.624
313.564
617.028
416.057
416.057
428.624
313.155
416.057
428.624
313.564
416.057
627.668
416.057
313.564
313.155
313.564
313.155
428.624
428.624
416.057
428.624
416.057
416.057
428.624
416.057
416.057
313.155
313.564
313.564
306.881
303.235
428.624
428.624
313.564
313.564
428.624
428.624
416.057
313.155
617.028
416.057
416.057
313.155
416.057
313.155
313.564
302.731
313.155
416.057
313.564
416.057
416.057
428.624
313.564
416.057
313.564
302.561
317.091
313.155
416.057
428.624
310.852
313.155
302.29
313.564
313.564
313.155
428.624
313.155
313.155
416.057
681.042
416.057
313.155
313.155
313.155
416.057
616.625
416.057
313.564
416.057
313.564
604.697
310.126
313.155
313.155
313.155
416.057
313.564
428.624
309.483
313.155
313.564
416.057
428.624
428.624
416.057
428.624
428.624
312.057
416.057
428.624
313.155
313.155
313.564
416.057
416.057
428.624
428.624
313.564
416.057
428.624
428.624
313.564
416.057
671.387
313.155
416.057
313.564
428.624
313.155
416.057
428.624
313.564
416.057
313.155
428.624
416.057
313.155
313.564
428.624
416.057
416.057
313.155
416.057
428.624
313.155
428.624
313.564
313.564
691.494
313.564
313.155
313.155
313.155
304.957
428.624
313.155
313.564
666.753
313.564
416.057
428.624
428.624
416.057
428.624
313.155
428.624
313.564
313.564
313.564
313.155
313.564
313.155
313.155
313.564
428.624
313.564
313.564
428.624
313.155
313.155
313.564
301.557
428.624
313.155
313.155
428.624
313.564
428.624
428.624
313.155
416.057
416.057
313.155
416.057
313.564
304.957
313.564
313.155
313.155
313.155
313.155
313.155
302.359
416.057
428.624
693.751
313.564
310.269
416.057
313.155
313.155
428.624
313.155
313.564
313.155
313.155
313.155
416.057
313.564
313.155
416.057
313.155
428.624
313.564
313.155
313.564
416.057
428.624
313.564
416.057
416.057
313.155
313.155
313.155
416.057
313.564
301.285
669.82
416.057
313.155
313.155
313.564
428.624
428.624
428.624
313.155
313.564
313.155
428.624
416.057
313.155
309.849
313.564
313.564
313.155
416.057
313.564
428.624
313.564
416.057
416.057
313.564
313.564
416.057
607.326
313.564
428.624
672.418
632.125
667.281
416.057
416.057
428.624
313.155
313.155
428.624
313.564
428.624
313.564
313.155
428.624
313.155
313.155
416.057
313.155
616.853
605.765
416.057
416.057
313.564
313.564
313.155
428.624
313.155
428.624
313.155
313.155
416.057
428.624
416.057
308.439
304.258
313.564
314.958
428.624
313.155
416.057
313.155
416.057
313.155
416.057
416.057
313.564
313.155
428.624
313.155
416.057
313.564
416.057
428.624
428.624
428.624
313.155
416.057
428.624
603.805
428.624
428.624
313.155
416.057
313.155
313.155
313.564
313.155
313.564
313.155
416.057
428.624
605.765
313.564
313.564
416.057
313.155
313.155
313.155
313.155
416.057
416.057
313.564
313.564
313.155
313.155
655.43
301.226
428.624
416.057
416.057
313.155
416.057
301.852
428.624
313.155
416.057
428.624
313.564
416.057
313.564
313.155
313.564
679.239
428.624
311.934
313.155
313.155
313.155
313.564
428.624
313.564
314.958
416.057
313.155
313.564
313.155
428.624
313.564
313.564
428.624
617.017
603.805
312.91
313.155
416.057
416.057
697.423
428.624
313.155
313.155
416.057
428.624
313.155
428.624
416.057
416.057
313.155
313.564
428.624
682.823
428.624
313.155
428.624
428.624
313.564
313.564
313.564
313.564
416.057
428.624
428.624
428.624
313.564
313.155
313.564
313.155
416.057
416.057
416.057
416.057
428.624
416.057
416.057
305.621
313.564
313.155
313.155
428.624
428.624
416.057
416.057
416.057
313.155
625.088
313.564
313.564
313.155
428.624
428.624
313.155
313.564
313.155
428.624
313.564
416.057
416.057
313.155
313.155
313.155
313.155
313.564
313.564
313.564
313.564
313.155
313.155
416.057
313.155
416.057
313.564
416.057
416.057
616.625
313.155
313.155
688.52
313.564
416.057
428.624
416.057
428.624
313.155
416.057
634.619
313.155
301.44
428.624
416.057
416.057
636.683
313.155
313.155
313.155
428.624
301.845
308.729
313.155
682.897
428.624
313.155
313.564
313.564
313.564
313.155
313.564
428.624
313.155
301.058
313.564
416.057
416.057
416.057
416.057
416.057
313.155
428.624
681.575
416.057
416.057
416.057
315.987
313.838
313.155
416.057
313.155
313.155
313.155
313.155
313.564
416.057
416.057
428.624
313.155
416.057
313.155
428.624
313.155
627.872
617.913
416.057
313.564
428.624
428.624
313.564
428.624
306.113
416.057
313.838
313.564
313.564
681.042
313.564
416.057
428.624
313.155
416.057
313.155
313.155
313.564
313.564
313.564
416.057
313.564
661.393
428.624
302.586
428.624
428.624
643.402
313.155
416.057
416.057
416.057
313.155
428.624
416.057
313.564
313.155
313.155
428.624
416.057
301.126
416.057
416.057
313.564
428.624
416.057
428.624
416.057
428.624
416.057
416.057
305.154
313.564
416.057
428.624
313.155
313.155
428.624
416.057
313.564
309.849
313.564
416.057
416.057
313.155
428.624
416.057
428.624
303.235
313.155
313.155
316.91
313.564
313.564
313.564
313.155
416.057
428.624
632.125
628.581
428.624
416.057
313.564
416.057
313.564
310.519
416.057
313.155
313.564
428.624
428.624
304.258
416.057
416.057
313.564
416.057
416.057
416.057
416.057
428.624
416.057
428.624
416.057
416.057
313.564
428.624
428.624
416.057
428.624
313.564
308.089
313.564
313.564
416.057
428.624
313.155
416.057
416.057
428.624
313.155
313.155
416.057
428.624
313.564
313.155
428.624
416.057
428.624
428.624
416.057
313.155
416.057
428.624
313.564
313.564
416.057
428.624
313.155
313.155
416.057
428.624
416.057
416.057
686.193
313.155
313.564
313.564
313.564
313.564
416.057
313.155
313.155
313.564
416.057
428.624
416.057
428.624
313.564