<?xml version="1.0"?>
<VTKFile type="PolyData" version="0.1" byte_order="LittleEndian">
  <PolyData>
    <Piece NumberOfPoints="50000" NumberOfVerts="50000" NumberOfLines="0" NumberOfStrips="0" NumberOfPolys="0">
      <Points>
        <DataArray type="Float32" NumberOfComponents="3" format="ascii">
0.237084 0.00528991 0
-0.224551 0.00198171 0
0.229576 -0.00132635 0
0.239788 -0.00102205 0
-0.195231 0.00399773 0
-0.16394 0.00156395 0
0.0788591 -0.0150394 0
-0.201937 0.000263202 0
0.0696633 -0.011673 0
-0.0156101 0.00558032 0
0.180005 -0.00722006 0
0.228861 0.0048458 0
-0.131388 0.00445311 0
-0.0930488 -0.0141572 0
-0.245279 0.0016275 0
0.185546 0.00747993 0
-0.0339899 -0.000984419 0
0.237774 0.00120314 0
0.0902463 0.00110094 0
-0.224799 0.00247955 0
-0.235613 0.00354891 0
0.205964 0.0042285 0
-0.232458 0.0017947 0
0.231942 0.000224692 0
0.147679 -0.00727173 0
0.172569 0.00789189 0
-0.230361 -0.00418176 0
0.238194 -0.00177616 0
-0.164738 0.0141876 0
-0.242749 0.00566286 0
-0.182522 0.00743698 0
-0.169505 -0.00948204 0
0.235966 0.000711408 0
0.23741 -0.000390378 0
0.0453631 0.00330379 0
0.241455 -0.000737283 0
0.0734192 0.00114567 0
-0.240806 0.00178497 0
-0.225083 -0.0028136 0
-0.250249 -0.00119369 0
0.173945 0.00803372 0
0.183949 0.00389455 0
-0.230012 -0.00110607 0
0.234473 0.000656065 0
0.242807 0.00101448 0
-0.23677 0.00546632 0
0.231074 0.00317736 0
0.118407 -0.00859017 0
0.228043 0.00044049 0
0.233489 0.000344707 0
0.0978092 0.0129937 0
-0.232202 -0.000319608 0
-0.161193 0.00589038 0
0.230491 0.00198197 0
-0.228544 0.00176379 0
-0.243562 0.00185483 0
0.237334 -0.000504915 0
0.0958005 0.00715267 0
0.177354 0.00474676 0
0.244995 -0.00264518 0
0.199924 0.0030953 0
0.239893 0.0018352 0
0.052937 -0.0187182 0
0.244905 -0.000787386 0
-0.0784381 0.0103132 0
-0.227891 0.00118233 0
0.232787 -0.000274418 0
0.239055 -0.000117734 0
0.247224 0.00266123 0
0.17122 0.000853744 0
-0.230483 0.00227832 0
0.232553 0.0024973 0
0.127291 0.00102983 0
0.129768 0.00432999 0
0.110748 0.00333983 0
-0.23399 -0.00114055 0
0.203001 0.00766711 0
-0.222005 0.002915 0
0.17915 0.00435229 0
-0.243021 0.00132564 0
-0.12203 -0.0195371 0
-0.238135 0.00295982 0
0.219905 0.00331573 0
-0.23154 0.00074433 0
0.244694 -0.00251136 0
-0.23202 0.0023296 0
0.245081 -0.00245773 0
-0.10414 -0.00467599 0
-0.1007 0.0138731 0
-0.234176 -0.00384722 0
0.230507 0.00424037 0
-0.22904 -5.06411e-06 0
0.231468 -0.000760702 0
-0.157529 0.0118625 0
-0.0234747 -0.0124696 0
-0.205895 0.00346867 0
0.231227 0.0054502 0
-0.236032 0.00228956 0
-0.24902 0.00469024 0
-0.246837 -0.000227646 0
-0.206807 -0.00407189 0
-0.229917 -0.00295958 0
0.24662 -6.06423e-05 0
-0.0991796 -0.0117463 0
0.248364 1.58806e-05 0
0.203133 0.00776957 0
0.149938 0.00429384 0
0.0121542 0.0049533 0
0.228172 0.00298405 0
-0.233026 -0.00236344 0
-0.175334 0.0118969 0
-0.236309 0.00223479 0
-0.201477 0.00655229 0
169.636 245.387 0
0.155709 0.00465679 0
-0.232846 0.00247238 0
-0.241486 0.0029685 0
4.34913 5.94936 0
-0.234666 0.00133652 0
-0.0115913 -0.00471219 0
0.238285 -0.000493834 0
-0.226409 -0.00186746 0
0.160874 -0.00169205 0
-0.21624 0.00471541 0
0.233811 -6.55206e-05 0
0.227296 -0.000215353 0
0.0747049 0.0143387 0
0.240057 0.00292993 0
-0.209559 -0.0036669 0
0.181241 -0.000190049 0
0.241584 -0.0015149 0
0.239605 9.88759e-05 0
-0.247932 0.000810502 0
-0.206774 0.00273833 0
0.24548 -0.000709073 0
0.233341 -0.000256375 0
0.224909 -0.00129778 0
-0.0370518 0.00219248 0
0.187924 -0.00793568 0
0.182888 -0.0066144 0
0.187846 -0.00807081 0
0.222901 0.00598308 0
0.241127 -0.00163805 0
-0.055541 -0.00780957 0
-0.240427 0.00430234 0
0.159904 -0.0128047 0
-0.153681 0.0120788 0
-0.237144 0.00152953 0
-0.16917 -0.011259 0
-0.237912 0.00251877 0
0.181851 0.00467918 0
0.231789 0.00168793 0
-0.0719681 -0.00654899 0
0.188606 -0.005681 0
0.187531 0.00524945 0
0.229908 0.0026433 0
0.15732 -0.0053228 0
-0.233186 0.00198505 0
-0.100386 -0.00314472 0
0.240461 0.000126593 0
0.16066 -0.000617235 0
-0.211655 -0.00140388 0
-0.229108 0.0018293 0
-0.238232 0.00186614 0
-0.0613616 0.00619416 0
0.185144 -0.00335783 0
0.209261 -0.00293061 0
0.211898 0.00250132 0
0.177493 0.00500864 0
-0.0976654 0.0006863 0
0.247611 -0.00252608 0
-0.228355 0.00217179 0
-0.0539687 -0.00310554 0
0.239428 0.00290258 0
-0.0433256 -0.00167548 0
-0.184144 0.00954743 0
-0.228976 0.00180558 0
-0.138996 -0.00611202 0
-0.232189 -0.0010293 0
-0.233232 -0.003533 0
0.229471 0.000288568 0
-0.235865 0.00410005 0
-0.232268 0.00351276 0
0.236971 0.00348567 0
0.231085 -0.000198212 0
0.178515 -0.00979232 0
0.248139 -0.00166619 0
0.245441 0.000593163 0
0.238093 -0.00182624 0
0.0267199 0.0176006 0
0.24213 -0.00180777 0
0.195987 -0.00500897 0
-0.157023 -0.0104037 0
0.218094 0.00410155 0
-0.215666 0.00407259 0
0.229458 0.00136518 0
-0.192067 0.00721729 0
-0.204793 0.00344732 0
-0.229844 0.00260011 0
0.232403 0.00325155 0
-0.153325 0.0114385 0
0.244767 0.00192844 0
0.21235 -0.00287082 0
-0.0480499 -0.00381624 0
0.247994 -0.00258574 0
-0.226704 -0.00438004 0
0.0322701 0.0282104 0
0.0984312 -0.00356333 0
-0.205014 0.00661339 0
-0.144304 -0.00562393 0
0.227199 0.000679617 0
-0.100507 -0.0119492 0
0.213995 -0.00181463 0
-0.198127 0.00679841 0
-0.135618 -0.00892911 0
-0.238162 0.00388856 0
-0.234984 0.00484621 0
0.235494 0.00016814 0
-0.241388 -0.00049797 0
-0.0281361 0.0126373 0
-0.185594 0.00721496 0
-0.240993 0.00245575 0
-0.223565 -0.00342331 0
0.245932 -0.00139567 0
0.0870355 0.0147911 0
-0.229124 0.00210812 0
0.247126 0.000999183 0
0.237246 -0.000152936 0
-0.203457 0.00606007 0
-0.240185 -4.10261e-05 0
-0.236383 -0.0019475 0
0.230869 0.00284379 0
0.120138 0.0141678 0
-0.0362209 0.00912367 0
-0.24455 0.00292088 0
-0.210416 0.00378676 0
0.181272 -0.00995028 0
-0.1851 -0.00230199 0
-0.233632 0.00227785 0
0.143764 -0.00138852 0
0.24261 0.000309471 0
-0.214654 -0.00369162 0
-0.236404 0.00229547 0
-0.136384 -0.0078989 0
0.118567 0.00434156 0
0.211802 0.00278378 0
-0.223018 0.00445655 0
0.237431 -0.000152288 0
0.244271 0.00189279 0
0.140089 0.00769276 0
0.146188 0.00289818 0
-0.222168 0.0032935 0
0.229282 -0.0013966 0
-0.104892 -0.00519067 0
-0.214864 0.00510183 0
0.229691 0.000166222 0
-0.208254 0.00498372 0
0.203107 0.00560581 0
0.0880955 0.0140493 0
0.127268 0.000502376 0
0.244209 0.00087051 0
-0.222088 0.00319202 0
0.0447949 -0.00451014 0
0.0225518 -0.00786248 0
-0.158309 0.00233139 0
-0.233436 0.000932257 0
-0.229779 0.00203353 0
-0.22831 -0.000518417 0
0.235337 -0.000269 0
0.233433 -0.000142701 0
0.240481 -0.000228936 0
-0.235568 -0.00138427 0
0.15431 0.00213409 0
0.0128494 0.00755861 0
-0.245905 0.00326909 0
-0.239059 0.00165964 0
0.22855 0.000100726 0
-0.228494 0.00208349 0
0.226741 0.00415004 0
-0.231917 -0.000548829 0
-0.224713 0.000230521 0
-0.103706 -0.0131077 0
-0.235563 0.0017574 0
0.223093 -0.0009579 0
-0.199984 0.00661567 0
-0.22532 -0.00157171 0
-0.0891814 0.0119825 0
-0.234923 0.00222781 0
-0.23854 0.0025462 0
0.201247 -0.0014887 0
-0.0835245 0.00430321 0
0.234993 -0.000221094 0
0.240132 -0.00137634 0
0.152998 0.00847642 0
0.243785 0.00227613 0
0.23167 0.0039836 0
0.242821 0.00280677 0
-0.161054 0.013981 0
-0.220621 0.00151708 0
-0.245164 0.000861934 0
0.249079 0.000865485 0
-0.0328974 0.00465245 0
0.234177 -0.000706033 0
0.228644 0.00226957 0
0.241105 -0.000110273 0
0.0414825 0.00747137 0
-0.123376 0.0149704 0
0.202947 0.00347982 0
-0.0280649 0.00055743 0
-0.114989 0.0058006 0
-0.192691 0.00709033 0
0.235016 0.00424872 0
-0.170526 0.00884172 0
0.217325 -0.00282141 0
0.179156 -0.00245606 0
-0.24448 0.00399657 0
0.190949 -0.00829132 0
0.246596 -0.00271982 0
0.220477 -0.00144261 0
0.235773 0.00468635 0
-0.238507 0.00346544 0
-0.0520076 0.0091377 0
0.24036 0.00154591 0
0.239335 -0.000223664 0
0.110363 0.0148347 0
-0.22767 4.77146e-05 0
-0.223185 0.00327337 0
0.246342 0.000620935 0
-0.228053 -0.00145125 0
0.237763 0.00179837 0
0.239369 -0.00109843 0
0.114553 -0.0133796 0
0.229163 0.00239036 0
-0.234218 0.00226357 0
-0.200196 -3.37698e-05 0
-0.134347 -0.00115875 0
0.0191984 -0.00419643 0
0.0287289 -0.0168006 0
-0.214822 0.00229888 0
0.106563 -0.0148917 0
-0.0246793 0.0239911 0
-0.241914 0.00388686 0
-0.172598 0.00831095 0
-0.236101 0.00293191 0
-0.097506 -0.00761811 0
0.239327 0.00437316 0
-0.167558 0.00929433 0
-0.239087 0.000287367 0
-36.5196 151.055 0
0.238741 -0.00273886 0
0.238027 -0.000314236 0
-0.194504 0.00861923 0
0.231551 0.00208268 0
0.219586 -0.000256292 0
-330.029 -590.205 0
0.0730713 0.00889947 0
-0.236603 0.00250538 0
-0.196459 -0.00111352 0
0.236253 0.00241069 0
2.35714 -4.85473 0
0.223572 0.00326026 0
-0.231617 -0.00320655 0
-0.14758 0.000488037 0
-0.235223 -0.00160268 0
-0.23974 0.00427673 0
0.234534 -0.000253818 0
-0.243283 -0.000503944 0
-0.210873 0.00570603 0
0.18393 0.00769627 0
-0.229295 0.000370977 0
-0.190931 0.00862831 0
-0.211953 0.00514541 0
0.236895 0.00281232 0
0.213637 -0.00374658 0
-0.140905 0.0114852 0
0.243674 -0.00087215 0
-0.236757 -0.0029841 0
-0.219918 -0.00178635 0
-0.239279 0.0010745 0
0.0209567 -0.017826 0
-0.230408 -0.00280552 0
0.233893 0.00284804 0
-0.234644 0.00249766 0
-0.233525 0.00150117 0
-0.0572172 0.0091926 0
0.152995 0.00836451 0
-0.0759237 0.0216537 0
0.050507 0.0124202 0
-0.236877 0.00263076 0
-0.0425158 0.00246842 0
-0.237365 -0.000232289 0
-0.238532 0.00355832 0
0.228511 -0.00306221 0
0.201108 0.00586783 0
-0.222997 0.00410442 0
0.212511 0.00322141 0
0.210861 0.00114805 0
-0.227548 0.00213787 0
-0.12535 -0.00379738 0
0.16674 -0.00973707 0
-0.227946 0.000828147 0
0.201998 -0.0048636 0
0.0926856 -0.00245711 0
-0.234063 -0.000234475 0
0.219462 -2.5831e-06 0
0.230854 -0.0010046 0
0.234602 -0.0024007 0
0.238949 -0.000550472 0
0.242932 0.000381575 0
0.230437 0.00441271 0
-0.235741 0.0019699 0
0.169822 0.00602336 0
-0.19452 -0.00260235 0
0.111487 0.0159926 0
-0.22192 0.00194798 0
-0.078979 -0.0029125 0
-0.183836 0.00724236 0
0.0675366 -0.00784409 0
-0.240627 0.00263936 0
0.230616 -0.000262402 0
-0.0644762 0.0176539 0
0.0826267 0.0094778 0
-0.243848 0.00233103 0
0.232371 0.00147368 0
0.239397 -3.40733e-05 0
[...]
      <PointData Scalars="T">
        <DataArray type="Float32" Name="T" format="ascii" NumberOfComponents="1">
310.845
379.647
310.911
310.911
379.647
459.237
310.911
491.883
310.911
379.647
310.911
310.845
379.647
390.153
466.236
310.845
390.153
301.185
300.997
379.647
379.647
310.845
437.137
303.858
310.911
310.845
390.153
310.911
379.647
379.647
379.647
390.153
300.916
310.911
310.845
310.911
301.065
440.545
390.153
390.153
310.845
310.845
390.153
301.117
300.706
379.647
310.845
310.911
302.317
302.95
310.845
390.153
379.647
310.845
447.434
432.576
310.911
310.845
310.845
310.911
310.845
306.234
310.911
310.911
379.647
499.209
310.911
310.911
310.845
300.788
379.647
310.845
300.648
310.845
310.845
390.153
310.845
379.647
310.845
468.368
390.153
379.647
310.845
463.287
310.911
379.647
310.911
390.153
379.647
390.153
310.845
390.153
310.911
379.647
390.153
379.647
310.845
379.647
379.647
390.153
390.153
390.153
310.911
390.153
305.225
310.845
310.845
310.845
310.845
390.153
379.647
379.647
379.647
310.845
310.845
379.647
379.647
310.845
470.071
390.153
310.911
390.153
310.911
379.647
310.911
310.911
310.845
310.845
390.153
310.911
310.911
304.181
492.428
379.647
310.911
310.911
310.911
379.647
310.911
310.911
310.911
310.845
310.911
390.153
379.647
310.911
379.647
459.851
390.153
379.647
310.845
304.858
390.153
310.911
310.845
310.845
310.911
379.647
390.153
303.917
310.911
390.153
433.485
430.863
379.647
310.911
310.911
310.845
310.845
465.396
310.911
379.647
390.153
310.845
390.153
379.647
435.355
390.153
390.153
390.153
303.662
379.647
379.647
310.845
310.911
310.911
310.911
301.364
310.911
310.845
310.911
310.911
390.153
310.845
379.647
301.459
379.647
379.647
379.647
310.845
379.647
310.845
310.911
390.153
310.911
390.153
310.845
310.911
379.647
390.153
301.046
390.153
310.911
379.647
390.153
379.647
379.647
303.646
390.153
379.647
379.647
379.647
390.153
310.911
310.845
379.647
300.65
310.911
379.647
390.153
390.153
310.845
310.845
379.647
379.647
379.647
310.911
390.153
379.647
310.911
303.528
390.153
379.647
390.153
310.845
310.845
379.647
310.911
307.379
310.845
310.845
379.647
310.911
390.153
379.647
303.646
379.647
310.845
310.845
301.748
300.716
379.647
310.911
310.911
379.647
483.692
379.647
390.153
310.911
310.911
310.911
390.153
310.845
310.845
379.647
468.761
304.045
379.647
310.845
390.153
488.908
390.153
449.765
310.911
379.647
390.153
379.647
379.647
379.647
310.911
379.647
310.911
310.911
310.845
310.845
310.845
310.845
379.647
460.151
481.416
300.742
379.647
310.911
310.845
310.911
310.845
379.647
310.845
455.505
379.647
379.647
310.845
379.647
310.911
310.911
379.647
310.911
310.911
310.911
310.845
379.647
379.647
303.159
310.911
310.845
492.91
379.647
301.204
390.153
305.862
310.911
310.911
310.845
379.647
390.153
390.153
310.911
310.911
379.647
310.911
379.647
379.647
379.647
379.647
390.153
310.845
379.647
495.764
379.647
310.911
310.911
379.647
310.845
310.911
390.153
310.845
379.647
390.153
310.845
310.911
310.845
390.153
466.666
390.153
379.647
310.911
390.153
379.647
310.845
479.419
379.647
379.647
310.845
310.911
379.647
310.911
390.153
390.153
493.052
310.911
390.153
310.845
379.647
460.331
379.647
310.845
379.647
310.845
379.647
379.647
390.153
379.647
310.911
310.845
379.647
310.845
301.065
379.647
390.153
310.911
489.456
310.911
310.911
390.153
310.911
310.911
310.911
310.911
302.534
310.845
379.647
310.845
390.153
310.845
379.647
390.153
379.647
310.911
379.647
310.911
379.647
310.845
379.647
302.297
310.911
310.845
310.911
379.647
433.485
310.911
379.647
310.845
430.828
310.845
487.143
390.153
379.647
379.647
310.845
301.116
379.647
310.911
455.803
390.153
390.153
379.647
390.153
310.845
310.911
390.153
305.416
390.153
390.153
310.911
310.911
390.153
379.647
463.77
390.153
300.833
390.153
301.551
379.647
390.153
310.911
310.845
390.153
390.153
379.647
379.647
310.845
464.096
310.911
310.911
310.845
379.647
379.647
379.647
303.86
310.845
469.518
390.153
390.153
433.169
301.078
310.845
310.911
300.634
379.647
310.845
310.845
300.667
379.647
310.845
310.911
390.153
310.911
379.647
379.647
379.647
390.153
390.153
390.153
390.153
390.153
310.911
310.911
310.911
310.845
310.911
310.845
310.845
390.153
310.845
379.647
310.911
310.845
379.647
310.845
379.647
470.071
379.647
469.518
310.845
310.911
310.845
310.911
310.911
310.911
379.647
310.845
310.845
455.505
310.845
461.509
379.647
390.153
310.911
310.911
379.647
379.647
390.153
390.153
390.153
310.845
310.845
302.989
310.845
390.153
379.647
310.845
379.647
301.016
310.845
390.153
379.647
310.911
379.647
310.845
310.845
390.153
310.845
390.153
310.911
486.258
379.647
301.075
310.911
390.153
390.153
477.587
379.647
379.647
310.845
310.911
310.911
300.742
310.845
390.153
466.242
494.662
390.153
379.647
310.845
310.911
379.647
310.845
390.153
300.667
310.845
301.668
440.545
310.845
390.153
492.873
310.845
310.911
390.153
310.845
379.647
310.911
310.911
310.845
304.363
390.153
390.153
379.647
515.966
310.845
390.153
310.911
390.153
390.153
310.845
304.045
390.153
390.153
379.647
379.647
310.911
310.911
379.647
487.351
390.153
310.845
310.911
379.647
379.647
310.911
310.911
310.845
310.845
435.355
390.153
390.153
390.153
390.153
310.845
379.647
310.845
310.845
390.153
379.647
303.958
310.911
390.153
379.647
310.911
390.153
390.153
379.647
310.911
390.153
454.74
310.845
379.647
379.647
310.911
310.845
379.647
310.845
310.911
459.237
310.845
310.911
379.647
379.647
310.911
310.911
304.045
310.845
310.845
491.926
492.91
379.647
379.647
310.845
379.647
390.153
300.896
310.845
379.647
458.698
379.647
310.911
310.845
310.845
310.845
379.647
310.911
310.911
480.875
379.647
310.845
310.911
310.845
310.845
305.416
379.647
310.845
310.845
310.911
379.647
310.845
379.647
310.911
310.845
310.911
310.845
310.911
379.647
302.841
481.751
310.845
379.647
379.647
379.647
310.911
390.153
310.845
379.647
304.045
310.845
390.153
310.911
477.587
390.153
494.713
456.294
379.647
379.647
310.911
310.911
310.911
304.363
310.911
464.762
310.845
379.647
489.567
310.911
310.911
379.647
300.83
379.647
310.845
379.647
379.647
379.647
390.153
390.153
300.896
379.647
310.845
379.647
390.153
379.647
390.153
390.153
303.646
310.845
310.911
379.647
390.153
379.647
459.851
390.153
379.647
390.153
310.845
379.647
390.153
310.911
310.911
310.911
468.606
379.647
390.153
310.845
390.153
301.078
379.647
390.153
390.153
310.845
304.181
310.845
301.431
310.911
379.647
379.647
310.911
379.647
310.845
468.583
310.845
433.057
390.153
310.845
379.647
301.387
379.647
379.647
310.911
301.075
390.153
310.845
310.911
301.267
310.845
379.647
390.153
489.567
310.845
379.647
301.387
310.845
310.911
310.911
494.662
379.647
301.541
379.647
379.647
310.911
304.045
310.845
310.911
379.647
390.153
310.845
379.647
304.983
310.845
379.647
379.647
310.845
493.061
310.911
310.911
379.647
379.647
310.911
300.896
379.647
390.153
390.153
310.845
301.362
466.242
379.647
431.152
466.432
390.153
310.911
379.647
310.911
466.236
310.911
304.889
466.265
310.911
458.698
310.845
310.911
379.647
390.153
310.845
310.911
310.845
310.845
310.845
310.845
379.647
310.845
310.911
488.492
310.911
310.845
379.647
303.783
310.911
310.845
379.647
379.647
390.153
310.911
390.153
310.911
390.153
440.545
379.647
310.845
390.153
490.261
390.153
310.911
487.143
379.647
310.911
305.862
390.153
390.153
310.911
379.647
310.911
310.911
390.153
310.845
390.153
304.427
310.911
310.845
310.911
310.845
310.845
379.647
304.756
310.911
310.911
379.647
310.911
390.153
379.647
390.153
310.911
310.845
379.647
390.153
379.647
310.911
379.647
379.647
303.528
310.911
310.845
310.845
379.647
456.294
310.911
379.647
310.845
379.647
390.153
301.409
390.153
310.911
379.647
390.153
379.647
379.647
379.647
467.338
390.153
379.647
379.647
310.845
478.907
310.911
310.911
310.911
310.911
310.845
379.647
303.871
379.647
310.845
379.647
310.845
303.644
390.153
310.845
379.647
310.911
310.845
310.911
390.153
310.911
379.647
300.833
390.153
390.153
310.845
390.153
379.647
379.647
390.153
310.911
310.845
310.845
310.845
390.153
310.911
390.153
310.911
301.402
310.845
310.845
310.845
310.911
310.911
390.153
310.845
310.845
390.153
379.647
310.911
379.647
300.648
379.647
390.153
379.647
464.096
390.153
379.647
306.388
390.153
310.845
467.982
310.911
379.647
310.845
379.647
379.647
310.845
310.845
379.647
310.911
310.845
303.153
301.016
390.153
379.647
486.042
495.715
310.911
379.647
301.901
379.647
379.647
310.911
310.911
379.647
310.845
310.911
302.95
310.911
379.647
303.662
310.845
379.647
379.647
379.647
390.153
379.647
310.911
379.647
310.911
390.153
302.12
310.911
310.845
379.647
390.153
390.153
379.647
310.911
310.845
390.153
310.911
300.997
390.153
390.153
310.911
379.647
301.2
310.911
310.845
390.153
379.647
379.647
379.647
310.845
495.715
310.845
460.331
379.647
310.911
310.845
310.845
310.911
310.845
487.839
478.686
390.153
379.647
310.911
307.055
310.845
310.845
310.845
310.845
390.153
379.647
379.647
379.647
489.61
379.647
379.647
301.901
310.911
310.911
310.911
310.911
379.647
310.911
379.647
300.959
390.153
379.647
310.845
449.765
481.714
310.911
496.75
310.911
310.911
310.911
310.911
310.845
310.845
310.911
310.845
390.153
300.72
460.136
310.845
310.845
303.528
390.153
310.911
390.153
310.845
310.845
310.845
310.845
379.647
310.911
379.647
310.845
303.622
310.911
490.354
489.628
492.428
310.911
310.911
390.153
310.845
430.828
307.055
310.911
390.153
379.647
483.692
310.911
310.845
379.647
310.911
379.647
310.845
379.647
379.647
458.086
379.647
310.911
310.911
390.153
379.647
379.647
379.647
310.911
390.153
310.845
379.647
310.845
310.845
379.647
379.647
310.845
379.647
304.533
310.911
310.911
379.647
301.085
310.911
390.153
379.647
310.911
379.647
310.911
379.647
379.647
310.911
390.153
390.153
303.876
303.712
310.845
310.911
310.845
390.153
305.36
310.845
379.647
379.647
310.911
379.647
310.845
300.648
465.956
379.647
310.845
490.354
464.072
300.942
310.911
493.686
464.472
310.911
379.647
475.688
390.153
390.153
379.647
310.911
310.911
379.647
379.647
310.911
390.153
310.911
310.845
310.845
379.647
379.647
310.911
464.072
310.845
379.647
310.845
310.911
460.151
310.911
310.911
390.153
379.647
390.153
390.153
379.647
379.647
379.647
379.647
310.845
303.692
310.911
379.647
310.911
379.647
379.647
303.917
379.647
379.647
310.845
379.647
390.153
310.911
390.153
390.153
310.845
379.647
310.845
304.594
310.911
310.911
379.647
310.845
301.393
379.647
379.647
310.845
379.647
379.647
301.607
310.911
310.911
390.153
310.911
379.647
301.431
310.911
481.681
379.647
379.647
310.911
303.692
379.647
379.647
379.647
390.153
304.427
390.153
310.911
390.153
390.153
303.045
310.845
310.911
390.153
310.845
310.911
310.845
466.183
310.911
478.517
489.567
379.647
379.647
466.156
390.153
390.153
310.845
310.845
390.153
379.647
379.647
310.911
379.647
379.647
379.647
390.153
390.153
310.911
310.911
310.845
379.647
310.845
310.845
310.911
390.153
310.911
301.897
310.845
300.848
310.845
379.647
477.561
486.258
379.647
464.321
310.911
390.153
390.153
310.845
379.647
390.153
379.647
461.985
437.137
379.647
495.764
310.911
390.153
390.153
379.647
390.153
379.647
310.911
390.153
379.647
310.911
310.911
310.911
390.153
390.153
379.647
310.845
379.647
390.153
301.654
379.647
379.647
379.647
310.845
379.647
310.845
310.845
310.911
390.153
310.911
301.348
390.153
489.771
310.911
310.845
390.153
379.647
379.647
310.911
379.647
390.153
379.647
310.845
310.845
310.911
310.845
390.153
379.647
379.647
310.911
310.845
379.647
310.845
310.845
486.749
390.153
390.153
310.845
310.845
310.845
433.057
310.845
488.123
310.845
379.647
379.647
460.331
310.845
304.181
310.911
310.911
390.153
310.911
310.911
466.183
379.647
310.845
310.845
302.6
379.647
310.911
379.647
310.911
310.845
310.911
300.997
493.205
379.647
489.936
310.845
310.911
310.911
310.911
379.647
310.845
379.647
305.381
303.811
310.845
390.153
302.138
379.647
310.845
310.845
310.911
489.806
310.911
310.911
310.911
310.911
310.845
478.686
310.845
310.911
379.647
390.153
491.014
458.095
379.647
379.647
457.954
379.647
310.911
310.911
390.153
310.845
379.647
467.982
437.137
310.911
390.153
390.153
310.845
310.911
310.845
310.845
310.845
460.331
307.538
310.845
310.911
310.845
379.647
301.167
472.369
390.153
390.153
310.911
390.153
379.647
379.647
379.647
379.647
379.647
492.428
379.647
306.234
310.845
310.911
379.647
310.911
430.863
310.911
310.845
379.647
300.905
302.534
310.845
310.845
310.911
465.396
310.911
300.78
379.647
310.845
461.797
310.845
379.647
310.911
303.618
379.647
379.647
390.153
379.647
390.153
379.647
310.911
310.911
310.911
390.153
310.845
379.647
310.911
390.153
310.845
379.647
379.647
390.153
379.647
303.697
310.911
390.153
310.911
310.845
390.153
379.647
303.356
310.845
379.647
310.845
310.845
310.911
303.958
310.911
390.153
379.647
390.153
390.153
310.845
310.911
310.845
301.078
310.911
379.647
490.668
491.014
310.911
300.773
310.911
310.911
379.647
310.911
310.845
310.845
310.845
303.876
310.845
379.647
379.647
379.647
310.845
379.647
379.647
305.072
300.716
303.725
300.65
379.647
310.845
379.647
310.845
310.845
379.647
310.911
390.153
390.153
390.153
310.911
390.153
390.153
464.472
390.153
390.153
379.647
390.153
390.153
466.183
310.911
379.647
379.647
310.845
310.845
310.911
310.911
310.845
379.647
379.647
310.845
390.153
390.153
310.845
447.434
390.153
302.989
310.845
310.911
379.647
379.647
310.911
379.647
379.647
310.911
390.153
301.059
302.489
310.911
310.911
379.647
379.647
379.647
310.911
379.647
379.647
379.647
379.647
390.153
379.647
310.845
390.153
379.647
379.647
310.845
379.647
310.911
379.647
463.77
310.845
379.647
390.153
310.911
310.911
390.153
487.351
489.614
303.783
464.072
379.647
463.287
390.153
379.647
390.153
390.153
310.845
310.911
390.153
379.647
310.911
310.845
310.911
390.153
310.911
310.911
310.845
310.845
379.647
390.153
379.647
379.647
303.644
456.294
310.845
437.137
390.153
390.153
310.911
300.609
390.153
379.647
310.911
466.265
310.845
310.911
310.845
310.911
310.911
310.845
447.434
390.153
390.153
379.647
310.911
303.871
390.153
302.822
467.338
379.647
379.647
390.153
379.647
307.538
310.911
379.647
390.153
305.092
310.845
379.647
310.911
379.647
305.225
310.911
310.911
379.647
310.845
310.911
310.911
310.845
390.153
300.609
390.153
390.153
310.911
310.911
390.153
464.321
310.845
310.911
310.911
390.153
390.153
379.647
307.379
310.845
390.153
310.845
310.911
482.794
310.911
310.845
379.647
390.153
495.764
379.647
379.647
470.848
379.647
379.647
306.642
390.153
300.712
390.153
390.153
310.845
460.151
379.647
379.647
390.153
310.911
379.647
390.153
305.624
379.647
469.518
379.647
310.845
310.911
310.845
310.911
390.153
390.153
379.647
390.153
449.765
379.647
390.153
379.647
435.355
310.911
310.845
310.845
301.541
300.916
390.153
486.042
310.845
310.845
390.153
390.153
379.647
310.911
460.151
379.647
379.647
310.911
379.647
310.911
310.845
300.87
310.911
379.647
310.845
379.647
379.647
390.153
310.845
379.647
310.845
301.116
303.52
303.618
379.647
390.153
301.901
303.811
301.078
310.845
310.845
310.911
390.153
310.911
310.911
379.647
490.452
379.647
310.911
310.911
310.911
437.137
460.331
379.647
310.845
379.647
310.845
455.803
302.036
310.911
310.911
310.911
379.647
310.845
390.153
301.897
303.692
310.845
379.647
390.153
390.153
379.647
390.153
390.153
302.691
379.647
489.567
310.911
310.911
304.983
379.647
379.647
390.153
390.153
310.845
379.647
390.153
390.153
310.845
379.647
490.795
310.911
379.647
310.845
390.153
310.911
433.057
390.153
310.845
379.647
310.911
390.153
379.647
310.911
310.845
390.153
379.647
379.647
310.911
379.647
390.153
310.911
491.883
310.845
310.845
486.258
310.845
310.911
310.911
310.911
301.401
390.153
310.911
310.845
480.58
310.845
379.647
390.153
390.153
379.647
390.153
310.911
390.153
310.845
310.845
310.845
310.911
310.845
310.911
310.911
310.845
390.153
305.862
310.845
390.153
310.911
310.911
310.845
300.742
390.153
310.911
310.911
390.153
310.845
390.153
390.153
310.911
379.647
379.647
310.911
379.647
305.381
301.401
310.845
310.911
310.911
310.911
310.911
304.045
300.816
379.647
390.153
492.873
310.845
301.901
379.647
310.911
310.911
489.567
310.911
310.845
310.911
310.911
310.911
379.647
310.845
310.911
379.647
310.911
390.153
310.845
310.911
310.845
379.647
390.153
310.845
379.647
379.647
310.911
310.911
310.911
379.647
310.845
300.757
483.516
379.647
310.911
310.911
310.845
390.153
390.153
390.153
310.911
310.845
310.911
492.91
379.647
310.911
301.791
310.845
310.845
310.911
379.647
310.845
390.153
310.845
379.647
379.647
305.381
310.845
379.647
456.608
310.845
390.153
479.576
468.49
478.517
379.647
379.647
390.153
310.911
310.911
496.613
306.642
493.802
310.845
310.911
390.153
310.911
310.911
379.647
310.911
473.281
455.505
379.647
379.647
310.845
310.845
310.911
390.153
310.911
390.153
310.911
310.911
433.485
390.153
379.647
301.607
301.348
310.845
302.822
390.153
310.911
379.647
310.911
379.647
310.911
379.647
379.647
310.845
310.911
390.153
303.646
379.647
310.845
379.647
390.153
390.153
390.153
310.911
379.647
390.153
458.086
390.153
390.153
310.911
379.647
310.911
310.911
310.845
310.911
310.845
310.911
379.647
390.153
458.095
310.845
310.845
379.647
310.911
303.858
310.911
310.911
379.647
379.647
310.845
310.845
310.911
304.045
489.456
300.706
390.153
437.137
379.647
310.911
379.647
300.942
390.153
310.911
379.647
390.153
310.845
379.647
310.845
310.911
310.845
493.889
494.114
302.356
310.911
310.911
310.911
310.845
492.91
310.845
302.822
379.647
305.225
310.845
310.911
390.153
310.845
310.845
390.153
459.851
458.086
302.317
310.911
454.74
379.647
490.689
390.153
310.911
310.911
379.647
390.153
310.911
390.153
379.647
379.647
310.911
310.845
390.153
492.428
390.153
310.911
390.153
390.153
310.845
310.845
310.845
310.845
379.647
390.153
390.153
390.153
310.845
310.911
310.845
305.225
379.647
379.647
379.647
379.647
390.153
379.647
456.294
301.3
305.092
310.911
310.911
390.153
390.153
428.915
379.647
379.647
310.911
465.84
310.845
310.845
310.911
390.153
390.153
310.911
310.845
310.911
390.153
310.845
379.647
379.647
304.745
310.911
310.911
310.911
310.845
310.845
310.845
310.845
310.911
310.911
466.236
310.911
379.647
310.845
379.647
379.647
460.331
310.911
310.911
493.182
310.845
379.647
390.153
379.647
390.153
310.911
379.647
466.265
310.911
300.694
390.153
379.647
379.647
468.49
310.911
310.911
310.911
390.153
300.809
301.668
310.911
492.801
491.014
310.911
304.329
310.845
307.055
310.911
310.845
390.153
310.911
300.65
307.055
379.647
379.647
379.647
379.647
379.647
310.911
491.883
487.462
379.647
379.647
379.647
303.488
302.489
310.911
379.647
310.911
310.911
310.911
310.911
310.845
379.647
379.647
390.153
310.911
456.294
310.911
390.153
310.911
464.762
458.086
379.647
310.845
390.153
390.153
310.845
390.153
301.434
379.647
302.489
310.845
310.845
491.311
310.845
379.647
390.153
310.911
379.647
310.911
310.911
310.845
310.845
310.845
379.647
310.845
477.299
390.153
300.83
390.153
390.153
477.587
310.911
379.647
462.951
379.647
310.911
390.153
379.647
310.845
310.911
310.911
390.153
379.647
300.621
379.647
379.647
310.845
390.153
379.647
390.153
379.647
390.153
379.647
379.647
301.401
310.845
379.647
390.153
310.911
310.911
390.153
379.647
310.845
301.84
310.845
379.647
379.647
310.911
390.153
379.647
390.153
300.916
310.911
310.911
303.573
310.845
310.845
310.845
310.911
379.647
390.153
468.49
465.396
390.153
379.647
310.845
379.647
310.845
301.901
379.647
310.911
310.845
390.153
390.153
301.348
379.647
379.647
310.845
379.647
468.606
379.647
379.647
390.153
379.647
390.153
379.647
379.647
310.845
390.153
390.153
379.647
390.153
310.845
301.776
310.845
310.845
379.647
390.153
310.911
379.647
379.647
496.613
310.911
310.911
379.647
390.153
310.845
310.911
390.153
379.647
390.153
390.153
379.647
310.911
379.647
390.153
310.845
306.154
379.647
390.153
310.911
310.911
379.647
390.153
379.647
379.647
496.75
310.911
310.845
310.845
310.845
310.845
379.647
310.911
310.911
310.845
379.647
390.153
379.647
390.153
310.845
310.911