<?xml version="1.0"?>
<VTKFile type="PolyData" version="0.1" byte_order="LittleEndian">
  <PolyData>
    <Piece NumberOfPoints="50000" NumberOfVerts="50000" NumberOfLines="0" NumberOfStrips="0" NumberOfPolys="0">
      <Points>
        <DataArray type="Float32" NumberOfComponents="3" format="ascii">
0.227958 0.00512582 0
-0.215825 0.00194014 0
0.220721 -0.0012363 0
0.230545 -0.000943049 0
-0.187626 0.00387877 0
-0.157544 0.00153964 0
0.0758226 -0.0144152 0
-0.194095 0.000287358 0
0.0669915 -0.0111812 0
-0.0149584 0.00539865 0
0.173054 -0.00690173 0
0.220055 0.00469938 0
-0.126257 0.00431686 0
-0.0893831 -0.0135684 0
-0.235744 0.00159955 0
0.178376 0.00722779 0
-0.032631 -0.000909177 0
0.228602 0.00119574 0
0.0867814 0.00109595 0
-0.216057 0.00241898 0
-0.226461 0.00344624 0
0.19801 0.00410273 0
-0.223416 0.00176067 0
0.223009 0.00025564 0
0.141985 -0.00695159 0
0.1659 0.00762372 0
-0.221382 -0.00398338 0
0.229019 -0.00166764 0
-0.158293 0.0136725 0
-0.233317 0.00547814 0
-0.175405 0.0071849 0
-0.162874 -0.0090768 0
0.226881 0.000723873 0
0.228256 -0.000336284 0
0.0436377 0.00321294 0
0.23215 -0.000669251 0
0.070608 0.00113884 0
-0.23146 0.00175012 0
-0.216312 -0.00266862 0
-0.240507 -0.00111184 0
0.167222 0.00776001 0
0.176848 0.0037816 0
-0.221084 -0.00102907 0
0.225446 0.000670652 0
0.23344 0.00101441 0
-0.22757 0.00528921 0
0.222182 0.00309489 0
0.113845 -0.00821855 0
0.219258 0.000462818 0
0.224496 0.000371028 0
0.0940358 0.0125258 0
-0.223189 -0.000272954 0
-0.154904 0.00569824 0
0.221618 0.00194524 0
-0.219666 0.00173032 0
-0.234093 0.00181799 0
0.228194 -0.000445458 0
0.092113 0.0069124 0
0.170509 0.00460083 0
0.235556 -0.00250287 0
0.192208 0.00301357 0
0.230658 0.00180472 0
0.0509113 -0.0179504 0
0.235463 -0.000717557 0
-0.075353 0.00994921 0
-0.219043 0.00117112 0
0.223815 -0.000224596 0
0.229829 -7.44181e-05 0
0.237678 0.00259702 0
0.164619 0.000858885 0
-0.221522 0.00222547 0
0.223599 0.00244063 0
0.12242 0.00103081 0
0.124765 0.00420064 0
0.106489 0.00324805 0
-0.224908 -0.00106226 0
0.19515 0.00740753 0
-0.213371 0.00283773 0
0.172233 0.00422144 0
-0.233572 0.00130961 0
-0.117228 -0.0187376 0
-0.228882 0.00288013 0
0.211443 0.00322764 0
-0.22255 0.000749969 0
0.235267 -0.00237426 0
-0.222998 0.00227479 0
0.235635 -0.00232295 0
-0.100057 -0.00445754 0
-0.0967452 0.0133702 0
-0.225088 -0.0036647 0
0.221637 0.00411685 0
-0.220149 2.94824e-05 0
0.22254 -0.000692404 0
-0.151369 0.0114383 0
-0.0225174 -0.0119448 0
-0.197883 0.00337013 0
0.222329 0.00528014 0
-0.226858 0.00223614 0
-0.239346 0.0045433 0
-0.237232 -0.000183278 0
-0.198742 -0.00387803 0
-0.220994 -0.00281122 0
0.237107 -1.89457e-05 0
-0.0952775 -0.0112521 0
0.238784 5.44309e-05 0
0.195278 0.00750602 0
0.14419 0.00416876 0
0.0117098 0.00479626 0
0.21936 0.0029068 0
-0.223984 -0.00223829 0
-0.168483 0.0114712 0
-0.227128 0.0021833 0
-0.193626 0.00633433 0
162.609 235.222 0
0.149704 0.00451482 0
-0.223794 0.00241204 0
-0.232102 0.00288839 0
4.1681 5.7017 0
-0.225556 0.00131914 0
-0.011096 -0.00448889 0
0.229106 -0.000434997 0
-0.217625 -0.00176173 0
0.154685 -0.00158667 0
-0.207823 0.00456862 0
0.224796 -2.4008e-05 0
0.218537 -0.000167836 0
0.0718297 0.0138177 0
0.230787 0.00285509 0
-0.201387 -0.00348879 0
0.174249 -0.000144448 0
0.232271 -0.00141673 0
0.230364 0.000134132 0
-0.238291 0.000814423 0
-0.198725 0.002668 0
0.236023 -0.00064182 0
0.224353 -0.000206787 0
0.216235 -0.00120887 0
-0.0355721 0.00214425 0
0.180663 -0.00758937 0
0.175827 -0.00631963 0
0.180588 -0.00771938 0
0.214285 0.00578933 0
0.231838 -0.00153493 0
-0.0533414 -0.00746862 0
-0.231086 0.00417043 0
0.15372 -0.0122685 0
-0.147671 0.0116461 0
-0.227926 0.00150543 0
-0.162546 -0.0107839 0
-0.228666 0.00245618 0
0.174831 0.00453585 0
0.222863 0.00166241 0
-0.069132 -0.00625743 0
0.181328 -0.00542252 0
0.180291 0.00508411 0
0.221061 0.00258147 0
0.151255 -0.00507821 0
-0.224129 0.00194296 0
-0.0964509 -0.00298583 0
0.231198 0.000161437 0
0.154472 -0.000555044 0
-0.203438 -0.00131552 0
-0.220209 0.00179326 0
-0.228982 0.00182849 0
-0.0589412 0.00599044 0
0.178003 -0.0031893 0
0.201188 -0.0027786 0
0.203717 0.00244265 0
0.170678 0.00485585 0
-0.0938368 0.000696426 0
0.238067 -0.00238864 0
-0.219484 0.00212272 0
-0.0518357 -0.002948 0
0.230213 0.00283092 0
-0.0416012 -0.00157313 0
-0.176957 0.00921324 0
-0.22008 0.00177061 0
-0.133552 -0.00583819 0
-0.223175 -0.000955235 0
-0.224181 -0.00336257 0
0.220631 0.000316748 0
-0.226707 0.00397579 0
-0.223248 0.00341139 0
0.227849 0.0033911 0
0.222179 -0.000151373 0
0.171616 -0.00937387 0
0.238575 -0.00156209 0
0.235972 0.000609489 0
0.22892 -0.00171594 0
0.0257088 0.0169489 0
0.232799 -0.00169823 0
0.188423 -0.00477651 0
-0.150873 -0.00996213 0
0.209672 0.00398112 0
-0.207272 0.00395066 0
0.220622 0.00135207 0
-0.184579 0.00697359 0
-0.196824 0.00334962 0
-0.220906 0.00253488 0
0.223459 0.00316625 0
-0.147331 0.0110308 0
0.23532 0.00189274 0
0.204158 -0.00272112 0
-0.0461452 -0.00363081 0
0.238434 -0.002446 0
-0.217906 -0.00417718 0
0.0310328 0.0271358 0
0.0946518 -0.00338726 0
-0.197026 0.00639312 0
-0.13866 -0.00536885 0
0.218449 0.000692912 0
-0.0965531 -0.0114472 0
0.205741 -0.00170579 0
-0.190406 0.006571 0
-0.130304 -0.00854533 0
-0.228912 0.0037727 0
-0.225857 0.00469317 0
0.226424 0.000201317 0
-0.231993 -0.000443063 0
-0.0270048 0.0121823 0
-0.178358 0.00697137 0
-0.231624 0.00239546 0
-0.214851 -0.00325432 0
0.236451 -0.00130213 0
0.0836769 0.0142523 0
-0.220225 0.00206135 0
0.237589 0.000999413 0
0.228108 -0.00010731 0
-0.195531 0.00586124 0
-0.230865 -5.46693e-06 0
-0.227212 -0.00183856 0
0.221985 0.00277411 0
0.115496 0.013654 0
-0.0347761 0.00880565 0
-0.235051 0.00284258 0
-0.202227 0.00367591 0
0.174266 -0.00952565 0
-0.177881 -0.00217705 0
-0.224549 0.002225 0
0.138229 -0.00129651 0
0.23325 0.000336454 0
-0.206324 -0.0035156 0
-0.227223 0.00224134 0
-0.13104 -0.00755529 0
0.114002 0.00421091 0
0.203624 0.00271415 0
-0.214335 0.00431971 0
0.228284 -0.000106793 0
0.23484 0.00185822 0
0.134683 0.00743187 0
0.140553 0.00282363 0
-0.213526 0.00320164 0
0.220437 -0.00130381 0
-0.100777 -0.00495204 0
-0.206499 0.00494008 0
0.220838 0.000198877 0
-0.200145 0.00482659 0
0.195256 0.00542629 0
0.0846986 0.01354 0
0.122377 0.000522423 0
0.234786 0.000876088 0
-0.213448 0.00310409 0
0.0430896 -0.00429704 0
0.0217113 -0.00751872 0
-0.152135 0.00227725 0
-0.224374 0.000930527 0
-0.220848 0.00199004 0
-0.21945 -0.000464443 0
0.226271 -0.000219007 0
0.22443 -9.822e-05 0
0.23121 -0.000180924 0
-0.226429 -0.00129712 0
0.148362 0.00208937 0
0.01237 0.00729331 0
-0.236351 0.00317735 0
-0.229766 0.0016305 0
0.219744 0.000136159 0
-0.219613 0.00203812 0
0.217982 0.00402767 0
-0.222914 -0.000493273 0
-0.215968 0.000256833 0
-0.0996291 -0.0125605 0
-0.226413 0.00172415 0
0.21449 -0.000882085 0
-0.192191 0.00639535 0
-0.216545 -0.00147502 0
-0.0856778 0.0115534 0
-0.225804 0.00217591 0
-0.22927 0.00248255 0
0.193491 -0.00139251 0
-0.0802497 0.00417296 0
0.225939 -0.000173122 0
0.230878 -0.00128354 0
0.147091 0.00818534 0
0.234375 0.00222695 0
0.222753 0.00386977 0
0.233446 0.00273695 0
-0.154752 0.013474 0
-0.212051 0.00149305 0
-0.235628 0.000864007 0
0.239468 0.000871093 0
-0.0315816 0.00450898 0
0.22515 -0.000639291 0
0.219841 0.00222175 0
0.231808 -6.67723e-05 0
0.0399054 0.00721834 0
-0.118537 0.0144247 0
0.195112 0.0033832 0
-0.0269365 0.000572624 0
-0.110492 0.00561212 0
-0.185179 0.00685162 0
0.225972 0.0041253 0
-0.16387 0.00853508 0
0.208939 -0.00267362 0
0.17225 -0.00232251 0
-0.234983 0.00387657 0
0.18357 -0.00793129 0
0.23709 -0.00257487 0
0.211975 -0.00134808 0
0.226698 0.00454547 0
-0.229241 0.00336607 0
-0.0499502 0.00881962 0
0.231082 0.0015248 0
0.230106 -0.000175673 0
0.106102 0.0142951 0
-0.218834 8.00404e-05 0
-0.214503 0.00318229 0
0.236838 0.000636151 0
-0.219172 -0.00135916 0
0.22861 0.00176893 0
0.230145 -0.00101641 0
0.110132 -0.0128209 0
0.220317 0.00233634 0
-0.225115 0.00221089 0
-0.192394 3.68538e-06 0
-0.129099 -0.00107734 0
0.0184871 -0.00399504 0
0.0276419 -0.0161041 0
-0.20647 0.00224536 0
0.102451 -0.0142739 0
-0.0236756 0.0230872 0
-0.232521 0.00377092 0
-0.165864 0.00802497 0
-0.226927 0.00285327 0
-0.0936762 -0.00728504 0
0.230114 0.00424442 0
-0.161015 0.00897008 0
-0.229809 0.000310283 0
-34.9147 144.417 0
0.229545 -0.00259283 0
0.228849 -0.000262684 0
-0.186918 0.00832111 0
0.222638 0.00204207 0
0.211123 -0.000207521 0
-315.886 -564.912 0
0.0702652 0.00859099 0
-0.227417 0.00244285 0
-0.188801 -0.00103412 0
0.227134 0.00235633 0
2.25854 -4.65152 0
0.214938 0.00317229 0
-0.222631 -0.00304924 0
-0.141818 0.000505497 0
-0.226097 -0.00150704 0
-0.230431 0.00414569 0
0.225487 -0.000205108 0
-0.233815 -0.000448942 0
-0.20266 0.00552087 0
0.176821 0.0074357 0
-0.220375 0.000391842 0
-0.183484 0.0083299 0
-0.203701 0.00498199 0
0.227749 0.00274205 0
0.205392 -0.00356298 0
-0.135392 0.0110756 0
0.234279 -0.000798992 0
-0.227569 -0.00283486 0
-0.211348 -0.00168096 0
-0.22999 0.00106734 0
0.0201741 -0.0170889 0
-0.221468 -0.00266329 0
0.224888 0.00277785 0
-0.225519 0.00243638 0
-0.224459 0.00147752 0
-0.0549565 0.0088721 0
0.147087 0.0080776 0
-0.0729261 0.0208462 0
0.048575 0.0119743 0
-0.227677 0.00256364 0
-0.0408266 0.00240972 0
-0.228152 -0.000189084 0
-0.229267 0.00345525 0
0.219703 -0.00290383 0
0.193335 0.00567819 0
-0.214318 0.0039812 0
0.204335 0.00313699 0
0.202725 0.00114199 0
-0.218703 0.00209044 0
-0.120447 -0.00361334 0
0.160299 -0.00932083 0
-0.219099 0.000830269 0
0.194201 -0.00463672 0
0.0891312 -0.00232398 0
-0.224953 -0.000190054 0
0.210994 3.61057e-05 0
0.221946 -0.000927008 0
0.225566 -0.00226797 0
0.229739 -0.000489807 0
0.233561 0.000406102 0
0.22157 0.00428254 0
-0.226583 0.00192859 0
0.163263 0.00582742 0
-0.186935 -0.00246571 0
0.107176 0.015407 0
-0.213295 0.00190774 0
-0.0758739 -0.00276244 0
-0.176667 0.00699773 0
0.0649521 -0.00750171 0
-0.231276 0.00257218 0
0.221729 -0.000213045 0
-0.0619277 0.017003 0
0.0794481 0.0091473 0
-0.234371 0.00227571 0
0.223424 0.00145652 0
[...]
      <PointData Scalars="T">
        <DataArray type="Float32" Name="T" format="ascii" NumberOfComponents="1">
310.688
376.831
310.792
310.792
376.831
448.457
310.792
478.446
310.792
376.831
310.792
310.688
376.831
386.944
454.499
310.688
386.944
301.11
300.911
376.831
376.831
310.688
427.491
303.255
310.792
310.688
386.944
310.792
376.831
376.831
376.831
386.944
300.852
310.792
310.688
310.792
301.003
429.499
386.944
386.944
310.688
310.688
386.944
300.999
300.673
376.831
310.688
310.792
302.016
302.456
310.688
386.944
376.831
310.688
437.157
424.16
310.792
310.688
310.688
310.792
310.688
305.335
310.792
310.792
376.831
485.529
310.792
310.792
310.688
300.749
376.831
310.688
300.648
310.688
310.688
386.944
310.688
376.831
310.688
456.802
386.944
376.831
310.688
452.931
310.792
376.831
310.792
386.944
376.831
386.944
310.688
477.908
310.792
376.831
386.944
376.831
310.688
376.831
376.831
386.944
386.944
386.944
310.792
386.944
304.497
310.688
310.688
310.688
310.688
386.944
376.831
376.831
376.831
310.688
310.688
376.831
376.831
310.688
458.126
386.944
310.792
386.944
310.792
376.831
310.792
310.792
310.688
310.688
386.944
310.792
310.792
303.504
478.696
376.831
310.792
310.792
310.792
376.831
310.792
310.792
310.792
310.688
310.792
386.944
376.831
310.792
376.831
448.963
386.944
376.831
310.688
304.347
386.944
310.792
310.688
310.688
310.792
376.831
386.944
303.306
310.792
386.944
424.565
422.491
376.831
310.792
310.792
310.688
310.688
453.92
310.792
376.831
386.944
310.688
386.944
376.831
426.348
386.944
386.944
386.944
303.089
376.831
376.831
310.688
310.792
310.792
310.792
301.24
310.792
310.688
310.792
310.792
386.944
310.688
376.831
301.326
376.831
376.831
376.831
310.688
376.831
306.842
310.792
386.944
310.792
386.944
310.688
310.792
376.831
386.944
300.934
386.944
310.792
376.831
386.944
376.831
376.831
303.072
386.944
376.831
376.831
376.831
386.944
310.792
310.688
376.831
300.625
310.792
376.831
386.944
386.944
310.688
310.688
376.831
376.831
376.831
310.792
386.944
376.831
310.792
302.944
386.944
376.831
386.944
310.688
310.688
376.831
310.792
306.19
310.688
310.688
376.831
310.792
386.944
376.831
303.113
376.831
310.688
310.688
301.507
300.693
376.831
310.792
310.792
376.831
471.837
376.831
386.944
310.792
310.792
310.792
386.944
310.688
310.688
376.831
456.968
303.504
376.831
310.688
386.944
475.652
386.944
439.576
310.792
376.831
386.944
376.831
376.831
376.831
310.792
376.831
310.792
310.792
310.688
310.688
310.688
310.688
376.831
449.517
468.203
300.693
376.831
310.792
310.688
310.792
310.688
376.831
310.688
444.974
376.831
376.831
310.688
376.831
310.792
310.792
376.831
310.792
310.792
310.792
310.688
376.831
376.831
302.7
310.792
310.688
479.905
376.831
301.1
386.944
305.058
310.792
310.792
310.688
376.831
386.944
386.944
310.792
310.792
376.831
310.792
376.831
376.831
376.831
376.831
386.944
310.688
376.831
481.574
376.831
310.792
310.792
376.831
310.688
310.792
386.944
310.688
376.831
386.944
310.688
310.792
310.688
386.944
456.237
386.944
376.831
310.792
386.944
376.831
310.688
467.83
376.831
376.831
310.688
310.792
376.831
310.792
386.944
386.944
479.136
310.792
386.944
310.688
376.831
449.891
376.831
310.688
376.831
310.688
376.831
376.831
386.944
376.831
310.792
310.688
376.831
310.688
301.009
376.831
386.944
310.792
469.922
310.792
310.792
386.944
304.49
310.792
310.792
310.792
302.187
310.688
376.831
310.688
386.944
310.688
412.062
386.944
376.831
310.792
376.831
310.792
376.831
310.688
376.831
301.938
310.792
310.688
310.792
376.831
424.565
310.792
376.831
310.688
422.186
310.688
477.096
386.944
376.831
376.831
310.688
301.081
376.831
310.792
445.566
386.944
386.944
376.831
386.944
310.688
310.792
386.944
304.717
386.944
386.944
310.792
310.792
386.944
376.831
453.92
386.944
300.778
386.944
301.34
376.831
386.944
310.792
310.688
386.944
386.944
376.831
376.831
310.688
452.823
310.792
310.792
310.688
376.831
376.831
376.831
303.251
310.688
457.818
386.944
386.944
424.427
301.007
310.688
310.792
300.62
376.831
310.688
310.688
300.648
376.831
310.688
310.792
386.944
310.792
376.831
376.831
376.831
386.944
386.944
386.944
386.944
386.944
310.792
310.792
310.792
310.688
310.792
310.688
310.688
386.944
310.688
412.062
310.792
310.688
376.831
310.688
376.831
458.126
376.831
457.818
310.688
310.792
310.688
310.792
310.792
310.792
376.831
310.688
310.688
446.226
310.688
450.217
376.831
386.944
310.792
310.792
376.831
376.831
386.944
386.944
386.944
310.688
310.688
302.554
310.688
386.944
376.831
310.688
376.831
300.916
310.688
386.944
376.831
310.792
376.831
310.688
310.688
386.944
310.688
386.944
310.792
472.415
376.831
301.016
310.792
386.944
386.944
462.427
376.831
376.831
310.688
310.792
310.792
300.737
310.688
386.944
455.54
480.324
386.944
376.831
310.688
310.792
376.831
310.688
386.944
300.648
310.688
301.447
433.465
310.688
386.944
479.462
310.688
310.792
386.944
310.688
376.831
310.792
310.792
310.688
303.797
386.944
386.944
376.831
480.722
310.688
386.944
310.792
386.944
386.944
310.688
303.504
386.944
386.944
376.831
376.831
310.792
310.792
376.831
474.342
386.944
310.688
310.792
376.831
376.831
310.792
310.792
310.688
310.688
426.348
386.944
386.944
386.944
386.944
310.688
376.831
310.688
306.624
386.944
376.831
303.403
310.792
386.944
376.831
310.792
386.944
386.944
376.831
310.792
386.944
445.503
310.688
376.831
417.064
310.792
310.688
376.831
310.688
310.792
448.457
310.688
310.792
376.831
376.831
310.792
310.792
303.504
310.688
310.688
479.871
479.118
376.831
376.831
310.688
376.831
386.944
300.832
310.688
376.831
447.737
376.831
310.792
310.688
310.688
310.688
376.831
310.792
310.792
465.862
376.831
306.624
310.792
310.688
310.688
304.717
376.831
310.688
310.688
310.792
376.831
310.688
376.831
310.792
310.688
310.792
310.688
310.792
376.831
302.429
468.547
310.688
376.831
376.831
376.831
310.792
386.944
310.688
376.831
303.403
310.688
386.944
310.792
469.922
386.944
481.574
445.503
376.831
376.831
310.792
310.792
310.792
303.639
310.792
454.456
310.688
376.831
476.44
310.792
310.792
376.831
300.776
376.831
310.688
376.831
376.831
376.831
386.944
386.944
300.832
376.831
310.688
376.831
386.944
376.831
386.944
386.944
303.113
310.688
310.792
376.831
386.944
376.831
448.963
386.944
376.831
386.944
310.688
376.831
386.944
310.792
310.792
310.792
457.021
376.831
386.944
310.688
386.944
301.034
376.831
386.944
386.944
310.688
303.504
310.688
301.299
310.792
376.831
376.831
310.792
376.831
310.688
456.968
310.688
424.565
386.944
310.688
376.831
301.28
376.831
376.831
310.792
301.016
386.944
310.688
310.792
301.18
310.688
376.831
386.944
478.396
310.688
376.831
301.28
310.688
310.792
310.792
481.33
376.831
301.387
376.831
376.831
310.792
303.403
310.688
310.792
376.831
386.944
310.688
376.831
304.347
310.688
376.831
376.831
307.128
474.813
310.792
310.792
376.831
376.831
310.792
300.832
376.831
386.944
386.944
310.688
301.262
455.022
376.831
422.382
454.456
386.944
310.792
376.831
310.792
454.499
310.792
304.125
454.718
310.792
447.737
310.688
310.792
376.831
386.944
310.688
310.792
310.688
310.688
310.688
310.688
376.831
310.688
310.792
475.545
310.792
310.688
376.831
303.194
310.792
310.688
376.831
376.831
386.944
310.792
386.944
310.792
386.944
433.465
376.831
310.688
386.944
477.454
386.944
310.792
475.788
376.831
310.792
305.058
386.944
386.944
310.792
376.831
310.792
310.792
386.944
310.688
386.944
303.992
310.792
310.688
310.792
310.688
310.688
376.831
304.23
310.792
310.792
376.831
310.792
386.944
376.831
386.944
310.792
310.688
376.831
386.944
376.831
310.792
376.831
376.831
302.944
310.792
310.688
310.688
376.831
445.503
310.792
376.831
310.688
376.831
386.944
301.284
386.944
310.792
376.831
386.944
376.831
376.831
376.831
455.54
386.944
376.831
376.831
310.688
466.505
310.792
310.792
310.792
310.792
310.688
376.831
303.306
376.831
310.688
376.831
310.688
303.168
386.944
310.688
376.831
310.792
310.688
310.792
386.944
310.792
376.831
300.778
386.944
386.944
310.688
386.944
376.831
376.831
386.944
310.792
310.688
310.688
310.688
386.944
310.792
386.944
310.792
301.228
310.688
310.688
310.688
310.792
310.792
386.944
310.688
310.688
386.944
376.831
310.792
376.831
300.622
376.831
386.944
376.831
452.823
386.944
376.831
305.484
386.944
310.688
456.685
310.792
376.831
310.688
376.831
376.831
310.688
310.688
376.831
310.792
310.688
302.642
300.934
386.944
376.831
473.57
481.112
310.792
376.831
301.644
376.831
376.831
310.792
310.792
376.831
310.688
310.792
302.456
310.792
376.831
303.089
310.688
376.831
376.831
376.831
386.944
376.831
310.792
376.831
310.792
386.944
301.798
310.792
310.688
376.831
386.944
386.944
376.831
310.792
310.688
386.944
310.792
300.971
386.944
386.944
310.792
376.831
301.119
310.792
310.688
386.944
376.831
376.831
376.831
310.688
481.112
310.688
448.991
376.831
310.792
310.688
310.688
310.792
310.688
475.652
468.084
386.944
376.831
310.792
306.06
310.688
310.688
310.688
310.688
386.944
376.831
376.831
376.831
476.691
376.831
376.831
301.644
310.792
310.792
310.792
310.792
376.831
310.792
376.831
300.891
386.944
376.831
310.688
439.576
471.807
310.792
481.848
310.792
310.792
310.792
310.792
310.688
310.688
310.792
310.688
386.944
300.696
448.963
310.688
310.688
302.944
386.944
310.792
386.944
310.688
310.688
310.688
310.688
376.831
310.792
376.831
310.688
303.047
310.792
476.83
476.236
478.696
310.792
310.792
386.944
310.688
422.382
306.06
310.792
386.944
376.831
471.837
310.792
310.688
376.831
310.792
376.831
306.497
376.831
376.831
448.166
376.831
310.792
310.792
386.944
376.831
376.831
376.831
310.792
386.944
310.688
376.831
310.688
310.688
376.831
415.204
310.688
376.831
303.797
310.792
310.792
376.831
300.964
310.792
386.944
376.831
310.792
376.831
310.792
376.831
376.831
310.792
386.944
386.944
303.273
303.13
310.688
310.792
310.688
386.944
304.66
310.688
376.831
376.831
310.792
376.831
310.688
300.622
454.699
376.831
310.688
476.83
452.931
300.911
310.792
480.385
454.499
310.792
376.831
463.381
386.944
386.944
376.831
310.792
310.792
376.831
376.831
310.792
386.944
310.792
310.688
310.688
376.831
376.831
310.792
452.931
310.688
376.831
310.688
310.792
449.517
310.792
310.792
386.944
376.831
386.944
386.944
376.831
376.831
376.831
376.831
310.688
303.113
310.792
376.831
310.792
376.831
376.831
303.342
376.831
376.831
310.688
376.831
386.944
310.792
386.944
386.944
310.688
376.831
310.688
304.144
310.792
310.792
376.831
310.688
301.288
376.831
376.831
310.688
376.831
376.831
301.394
310.792
304.399
386.944
310.792
376.831
301.293
310.792
468.686
376.831
376.831
310.792
303.115
376.831
376.831
376.831
386.944
303.992
386.944
310.792
386.944
386.944
302.642
310.688
310.792
386.944
310.688
310.792
310.688
454.514
310.792
465.862
476.44
376.831
376.831
455.105
386.944
386.944
310.688
310.688
386.944
376.831
376.831
310.792
376.831
376.831
376.831
386.944
386.944
310.792
310.792
310.688
376.831
310.688
310.688
310.792
386.944
310.792
301.712
310.688
300.79
310.688
376.831
462.427
472.415
376.831
453.124
310.792
386.944
386.944
310.688
376.831
386.944
376.831
450.324
427.491
376.831
482.579
310.792
386.944
386.944
376.831
386.944
376.831
310.792
386.944
376.831
310.792
310.792
310.792
386.944
386.944
376.831
310.688
376.831
386.944
301.432
376.831
376.831
376.831
310.688
376.831
310.688
310.688
310.792
386.944
310.792
301.247
386.944
476.734
310.792
310.688
386.944
376.831
376.831
310.792
376.831
386.944
376.831
310.688
310.688
310.792
310.688
386.944
376.831
376.831
310.792
310.688
376.831
310.688
310.688
474.132
386.944
386.944
310.688
310.688
310.688
424.565
310.688
472.415
310.688
376.831
376.831
448.991
310.688
303.639
310.792
310.792
386.944
310.792
310.792
454.514
376.831
310.688
310.688
302.257
376.831
310.792
376.831
310.792
310.688
310.792
300.911
479.871
376.831
477.527
310.688
310.792
310.792
310.792
376.831
310.688
376.831
304.702
303.216
310.688
386.944
301.853
376.831
310.688
310.688
310.792
476.691
310.792
310.792
310.792
310.792
310.688
466.408
310.688
310.792
376.831
386.944
477.527
447.311
376.831
376.831
450.217
376.831
310.792
310.792
386.944
310.688
376.831
456.685
427.491
310.792
386.944
386.944
306.497
310.792
310.688
310.688
310.688
449.891
306.497
310.688
310.792
310.688
376.831
301.04
460.102
386.944
386.944
310.792
386.944
376.831
376.831
376.831
376.831
376.831
478.696
376.831
305.335
310.688
310.792
376.831
310.792
422.491
310.792
310.688
376.831
300.879
302.132
310.688
310.688
310.792
453.92
310.792
300.733
376.831
310.688
451.206
310.688
376.831
310.792
303.072
376.831
376.831
386.944
376.831
386.944
376.831
310.792
310.792
310.792
386.944
310.688
376.831
310.792
386.944
310.688
376.831
376.831
386.944
376.831
303.127
310.792
386.944
310.792
310.688
386.944
376.831
302.944
310.688
376.831
310.688
310.688
310.792
303.342
310.792
386.944
376.831
386.944
386.944
310.688
310.792
310.688
301.007
310.792
376.831
477.305
477.527
310.792
300.729
310.792
310.792
376.831
310.792
310.688
310.688
310.688
303.273
310.688
376.831
376.831
376.831
310.688
412.062
376.831
304.329
300.693
303.147
300.625
376.831
310.688
376.831
310.688
310.688
376.831
310.792
386.944
386.944
386.944
310.792
386.944
386.944
452.44
386.944
386.944
376.831
386.944
386.944
454.514
310.792
376.831
376.831
310.688
310.688
310.792
310.792
310.688
376.831
376.831
310.688
386.944
386.944
310.688
439.576
386.944
302.554
310.688
310.792
376.831
376.831
310.792
376.831
376.831
310.792
386.944
300.971
302.127
310.792
310.792
376.831
376.831
376.831
310.792
376.831
376.831
376.831
376.831
386.944
376.831
310.688
386.944
376.831
376.831
310.688
376.831
310.792
376.831
452.375
310.688
376.831
386.944
310.792
310.792
386.944
474.342
477.139
303.194
452.931
376.831
452.903
386.944
376.831
386.944
386.944
310.688
310.792
386.944
376.831
310.792
310.688
310.792
386.944
310.792
310.792
310.688
310.688
376.831
386.944
376.831
376.831
303.168
445.503
310.688
429.499
386.944
386.944
310.792
300.585
386.944
376.831
310.792
454.718
310.688
310.792
310.688
310.792
310.792
310.688
439.576
386.944
386.944
376.831
310.792
303.306
386.944
302.456
455.54
376.831
376.831
386.944
376.831
306.497
310.792
376.831
386.944
304.445
310.688
376.831
310.792
376.831
304.497
310.792
310.792
376.831
310.688
310.792
310.792
310.688
386.944
300.585
386.944
386.944
310.792
310.792
386.944
453.124
310.688
310.792
310.792
386.944
386.944
376.831
306.19
310.688
386.944
310.688
310.792
472.762
310.792
310.688
376.831
386.944
481.574
376.831
376.831
458.287
376.831
376.831
305.669
386.944
300.68
386.944
386.944
310.688
448.991
376.831
376.831
386.944
310.792
376.831
386.944
304.744
376.831
457.818
376.831
310.688
310.792
310.688
310.792
386.944
386.944
376.831
386.944
439.576
376.831
386.944
376.831
426.348
310.792
310.688
310.688
301.387
300.852
386.944
473.57
310.688
310.688
386.944
386.944
376.831
310.792
448.991
376.831
376.831
310.792
376.831
310.792
310.688
300.81
310.792
376.831
310.688
376.831
376.831
386.944
310.688
376.831
310.688
301.081
303.031
303.115
376.831
386.944
301.644
303.216
301.034
310.688
310.688
310.792
386.944
310.792
310.792
376.831
477.885
376.831
310.792
310.792
310.792
427.491
449.891
376.831
310.688
376.831
310.688
444.974
301.779
310.792
310.792
310.792
376.831
310.688
386.944
301.59
303.152
310.688
376.831
386.944
386.944
376.831
386.944
386.944
302.276
376.831
476.44
310.792
310.792
304.445
376.831
376.831
386.944
386.944
310.688
376.831
477.908
386.944
310.688
376.831
478.461
310.792
376.831
310.688
386.944
310.792
424.565
386.944
310.688
376.831
310.792
386.944
376.831
310.792
310.688
386.944
376.831
376.831
310.792
376.831
386.944
310.792
478.446
310.688
310.688
472.415
310.688
310.792
310.792
310.792
301.28
386.944
310.792
310.688
467.822
310.688
376.831
386.944
386.944
376.831
386.944
310.792
386.944
310.688
310.688
310.688
310.792
310.688
310.792
310.792
310.688
386.944
305.058
310.688
386.944
310.792
310.792
310.688
300.693
386.944
310.792
310.792
386.944
310.688
386.944
386.944
310.792
376.831
376.831
310.792
376.831
304.702
301.289
310.688
310.792
310.792
310.792
310.792
303.504
300.765
376.831
386.944
479.462
310.688
301.644
376.831
310.792
310.792
476.44
310.792
310.688
310.792
310.792
310.792
376.831
310.688
310.792
376.831
310.792
386.944
310.688
310.792
310.688
376.831
386.944
310.688
376.831
376.831
310.792
310.792
310.792
376.831
310.688
300.735
470.572
376.831
310.792
310.792
310.688
386.944
386.944
386.944
310.792
310.688
310.792
479.905
376.831
310.792
301.552
310.688
310.688
310.792
376.831
310.688
386.944
310.688
376.831
376.831
304.702
310.688
376.831
445.566
310.688
386.944
467.196
458.01
465.862
376.831
376.831
386.944
310.792
310.792
482.865
305.669
480.324
310.688
310.792
386.944
310.792
310.792
376.831
310.792
460.016
446.226
376.831
376.831
310.688
310.688
310.792
386.944
310.792
386.944
310.792
310.792
424.565
386.944
376.831
301.394
301.247
310.688
302.456
386.944
310.792
376.831
310.792
376.831
310.792
376.831
376.831
310.688
310.792
386.944
303.113
376.831
310.688
376.831
386.944
386.944
386.944
310.792
376.831
386.944
448.166
386.944
386.944
310.792
376.831
310.792
310.792
310.688
310.792
310.688
310.792
376.831
386.944
447.262
310.688
310.688
376.831
310.792
303.255
310.792
310.792
376.831
376.831
310.688
310.688
310.792
303.504
477.196
300.673
386.944
427.491
376.831
310.792
376.831
300.911
386.944
310.792
376.831
386.944
310.688
376.831
310.688
310.792
310.688
479.972
480.608
302
310.792
310.792
310.792
310.688
479.905
310.688
302.366
376.831
304.497
310.688
310.792
386.944
310.688
310.688
386.944
448.963
448.166
301.853
310.792
444.494
376.831
476.144
386.944
310.792
310.792
376.831
386.944
310.792
386.944
376.831
376.831
310.792
310.688
386.944
478.696
386.944
310.792
386.944
386.944
306.497
310.688
310.688
310.688
376.831
386.944
386.944
386.944
310.688
310.792
310.688
304.497
376.831
376.831
376.831
376.831
386.944
376.831
445.503
301.138
304.445
310.792
310.792
386.944
386.944
420.35
376.831
376.831
310.792
456.178
310.688
310.688
310.792
386.944
386.944
310.792
310.688
310.792
386.944
310.688
376.831
376.831
303.981
310.792
310.792
310.792
310.688
310.688
310.688
310.688
310.792
310.792
454.499
310.792
376.831
310.688
376.831
376.831
448.991
310.792
310.792
477.696
310.688
376.831
386.944
376.831
386.944
310.792
376.831
454.718
310.792
300.679
386.944
376.831
376.831
456.802
310.792
310.792
310.792
386.944
300.795
301.447
310.792
479.371
478.446
310.792
303.828
310.688
306.06
310.792
310.688
386.944
310.792
300.625
305.888
376.831
376.831
376.831
376.831
376.831
310.792
478.446
472.762
376.831
376.831
376.831
303.003
302.112
310.792
376.831
310.792
310.792
310.792
310.792
310.688
376.831
376.831
386.944
310.792
445.503
310.792
386.944
310.792
454.456
448.166
376.831
310.688
386.944
386.944
310.688
386.944
301.301
376.831
302.112
310.688
310.688
477.885
310.688
376.831
386.944
310.792
376.831
310.792
310.792
310.688
310.688
310.688
376.831
310.688
465.983
386.944
300.787
386.944
386.944
462.427
310.792
376.831
451.206
376.831
310.792
386.944
376.831
310.688
310.792
310.792
386.944
376.831
300.598
376.831
376.831
310.688
386.944
376.831
386.944
376.831
386.944
376.831
376.831
301.289
310.688
376.831
386.944
310.792
310.792
386.944
376.831
310.688
301.59
310.688
376.831
376.831
310.792
386.944
376.831
386.944
300.852
310.792
310.792
303.091
310.688
307.128
310.688
310.792
376.831
386.944
458.01
453.92
386.944
376.831
310.688
376.831
310.688
301.644
376.831
310.792
310.688
386.944
386.944
301.247
376.831
376.831
310.688
376.831
456.685
376.831
376.831
386.944
376.831
386.944
376.831
376.831
310.688
386.944
386.944
376.831
386.944
310.688
301.498
310.688
310.688
376.831
386.944
310.792
376.831
376.831
482.865
310.792
310.792
376.831
386.944
310.688
310.792
386.944
376.831
386.944
386.944
376.831
310.792
376.831
386.944
310.688
305.275
376.831
386.944
310.792
310.792
376.831
386.944
376.831
376.831
481.848
310.792
310.688
310.688
310.688
310.688
376.831
310.792
310.792
310.688
376.831
386.944
376.831
386.944
310.688
310.792
304.5
310.792