<?xml version="1.0"?>
<VTKFile type="ImageData" version="0.1" byte_order="LittleEndian">
  <ImageData Origin="0 0 0" Spacing="1e-05 1e-05 1e-05" WholeExtent="0 191 0 191 0 0">
    <Piece Extent="0 191 0 191 0 0">
      <CellData Scalars="T">
        <DataArray type="Float32" Name="T" format="ascii" NumberOfComponents="1">
448.179
15000
15000
14999.9
14999.8
14999.6
14999.4
14999
14998.5
14997.7
14996.6
14995.1
14993.1
14990.4
14986.7
14981.9
14975.7
14967.6
14957.2
14944.1
14927.7
14907.3
14882
14851.2
14813.8
14768.8
14715.2
14651.6
14577
14490
14389.4
14273.8
14142.2
13993.2
13826
13639.5
13433
13206.1
12958.4
12689.9
12400.8
12091.8
11763.7
11417.8
11055.3
10678.2
10288.5
9888.42
9480.41
9067.08
8651.16
8235.39
7822.55
7415.35
7016.41
6628.2
6253.01
5892.92
5549.73
5224.99
4919.96
4635.6
4372.59
4131.32
3911.88
3714.14
3537.74
3382.08
3246.44
3129.9
3031.47
2950.07
2884.55
2833.74
2796.49
2771.64
2758.09
2754.78
2760.73
2774.99
2796.74
2825.21
2859.7
2899.6
2944.36
2993.5
3046.6
3103.28
3163.21
3226.1
3291.68
3359.7
3429.93
3502.13
3576.08
3651.54
3728.28
3806.03
3884.52
3963.48
4042.58
4121.5
4199.92
4277.45
4353.76
4428.45
4501.17
4571.53
4639.2
4703.81
4765.07
4822.69
4876.4
4926
4971.31
5012.2
5048.6
5080.47
5107.81
5130.68
5149.17
5163.4
5173.53
5179.74
5182.21
5181.16
5176.79
5169.29
5158.84
5145.62
5129.75
5111.36
5090.53
5067.31
5041.72
5013.76
4983.41
4950.65
4915.45
4877.77
4837.61
4794.99
4749.97
4702.65
4653.16
4601.72
4548.59
4494.07
4438.54
4382.39
4326.07
4270.06
4214.85
4160.93
4108.8
4058.91
4011.73
3967.65
3927.04
3890.2
3857.39
3828.8
3804.55
3784.73
3769.33
3758.3
3751.53
3748.88
3750.12
3755
3763.23
3774.47
3788.37
3804.52
3822.5
3841.87
3862.16
3882.88
3903.48
3923.32
3941.63
3957.3
3968.6
3972.61
3964.03
3933.08
3861.22
3712.92
3419.28
2843.55
1701.31
314.624
753.889
15000
15000
14999.9
14999.8
14999.6
14999.4
14999
14998.5
14997.7
14996.6
14995.1
14993.1
14990.4
14986.7
14981.9
14975.7
14967.6
14957.3
14944.2
14927.8
14907.3
14882.1
14851.3
14813.9
14769
14715.3
14651.8
14577.2
14490.3
14389.7
14274.2
14142.6
13993.8
13826.6
13640.1
13433.8
13206.9
12959.3
12690.8
12401.9
12092.9
11764.9
11418.9
11056.5
10679.5
10289.7
9889.63
9481.58
9068.2
8652.19
8236.32
7823.36
7416.01
7016.91
6628.51
6253.12
5892.81
5549.38
5224.4
4919.12
4634.5
4371.22
4129.67
3909.97
3711.96
3535.3
3379.39
3243.49
3126.72
3028.07
2946.45
2880.73
2829.74
2792.31
2767.3
2753.59
2750.14
2755.95
2770.09
2791.73
2820.08
2854.47
2894.26
2938.93
2987.97
3040.98
3097.57
3157.41
3220.22
3285.72
3353.66
3423.81
3495.95
3569.84
3645.25
3721.95
3799.67
3878.15
3957.1
4036.21
4115.16
4193.61
4271.21
4347.58
4422.37
4495.19
4565.68
4633.47
4698.24
4759.65
4817.43
4871.32
4921.1
4966.59
5007.66
5044.24
5076.29
5103.8
5126.83
5145.47
5159.84
5170.09
5176.41
5178.98
5178.01
5173.7
5166.24
5155.83
5142.62
5126.76
5108.35
5087.5
5064.24
5038.6
5010.59
4980.2
4947.38
4912.12
4874.39
4834.18
4791.52
4746.46
4699.1
4649.6
4598.15
4545.01
4490.5
4434.98
4378.86
4322.57
4266.6
4211.43
4157.56
4105.48
4055.65
4008.52
3964.5
3923.94
3887.16
3854.4
3825.86
3801.66
3781.88
3766.51
3755.52
3748.78
3746.14
3747.4
3752.28
3760.51
3771.75
3785.62
3801.74
3819.69
3839.01
3859.25
3879.91
3900.44
3920.21
3938.44
3954.04
3965.28
3969.25
3960.73
3930.07
3859.17
3713.92
3430.45
2891.82
1896.6
327.865
749.832
15000
15000
14999.9
14999.8
14999.6
14999.4
14999
14998.5
14997.7
14996.6
14995.2
14993.1
14990.4
14986.8
14982
14975.7
14967.6
14957.3
14944.3
14927.9
14907.5
14882.3
14851.5
14814.2
14769.3
14715.7
14652.3
14577.8
14490.9
14390.4
14275.1
14143.6
13994.8
13827.8
13641.5
13435.2
13208.5
12961
12692.7
12403.9
12095.1
11767.2
11421.3
11059
10681.9
10292.2
9892.04
9483.91
9070.42
8654.25
8238.18
7824.98
7417.35
7017.92
6629.16
6253.37
5892.62
5548.73
5223.26
4917.47
4632.33
4368.52
4126.44
3906.2
3707.66
3530.47
3374.06
3237.67
3120.43
3021.33
2939.28
2873.16
2821.79
2784.01
2758.67
2744.66
2740.92
2746.46
2760.36
2781.75
2809.88
2844.06
2883.65
2928.11
2976.97
3029.79
3086.2
3145.87
3208.5
3273.84
3341.63
3411.63
3483.64
3557.41
3632.72
3709.33
3786.99
3865.43
3944.37
4023.5
4102.51
4181.04
4258.75
4335.27
4410.23
4483.26
4553.98
4622.04
4687.1
4748.82
4806.93
4861.16
4911.29
4957.14
4998.58
5035.52
5067.91
5095.76
5119.11
5138.05
5152.7
5163.21
5169.75
5172.51
5171.7
5167.52
5160.15
5149.8
5136.62
5120.76
5102.33
5081.43
5058.1
5032.38
5004.27
4973.77
4940.84
4905.47
4867.63
4827.33
4784.58
4739.44
4692.03
4642.48
4591.01
4537.87
4483.38
4427.89
4371.81
4315.59
4259.7
4204.62
4150.84
4098.86
4049.14
4002.13
3958.22
3917.77
3881.1
3848.44
3820
3795.89
3776.19
3760.9
3749.97
3743.28
3740.68
3741.96
3746.86
3755.08
3766.3
3780.13
3796.2
3814.07
3833.3
3853.44
3873.97
3894.36
3913.99
3932.07
3947.51
3958.62
3962.52
3954.06
3923.78
3854.05
3711.94
3436.13
2913.22
1931.65
327.413
744.761
15000
15000
14999.9
14999.8
14999.6
14999.4
14999
14998.5
14997.7
14996.6
14995.2
14993.1
14990.4
14986.8
14982
14975.8
14967.7
14957.4
14944.4
14928
14907.6
14882.5
14851.8
14814.5
14769.7
14716.2
14652.9
14578.5
14491.8
14391.4
14276.2
14144.9
13996.4
13829.5
13643.5
13437.4
13210.9
12963.7
12695.6
12406.9
12098.3
11770.5
11424.8
11062.5
10685.5
10295.8
9895.61
9487.38
9073.72
8657.33
8240.97
7827.41
7419.37
7019.46
6630.16
6253.78
5892.4
5547.83
5221.64
4915.09
4629.18
4364.59
4121.71
3900.67
3701.35
3523.39
3366.21
3229.1
3111.15
3011.38
2928.69
2861.97
2810.03
2771.72
2745.88
2731.41
2727.24
2732.38
2745.89
2766.94
2794.73
2828.58
2867.86
2912.03
2960.59
3013.13
3069.27
3128.67
3191.05
3256.14
3323.69
3393.48
3465.28
3538.87
3614.03
3690.51
3768.08
3846.46
3925.39
4004.54
4083.61
4162.26
4240.13
4316.86
4392.08
4465.41
4536.48
4604.93
4670.41
4732.6
4791.19
4845.93
4896.59
4942.97
4984.95
5022.41
5055.33
5083.68
5107.51
5126.9
5141.97
5152.85
5159.73
5162.78
5162.21
5158.22
5151
5140.74
5127.61
5111.75
5093.29
5072.32
5048.89
5023.04
4994.8
4964.14
4931.05
4895.52
4857.52
4817.07
4774.2
4728.95
4681.45
4631.85
4580.34
4527.2
4472.72
4417.28
4361.28
4305.15
4249.37
4194.43
4140.8
4088.97
4039.42
3992.57
3948.82
3908.54
3872.03
3839.53
3811.23
3787.26
3767.69
3752.5
3741.66
3735.06
3732.51
3733.83
3738.74
3746.96
3758.14
3771.91
3787.89
3805.65
3824.75
3844.72
3865.07
3885.26
3904.66
3922.52
3937.74
3948.64
3952.39
3943.93
3913.96
3845.2
3705.32
3433.77
2916.85
1941.37
326.389
743.86
15000
15000
14999.9
14999.8
14999.6
14999.4
14999
14998.5
14997.7
14996.7
14995.2
14993.2
14990.4
14986.8
14982.1
14975.8
14967.8
14957.5
14944.5
14928.2
14907.9
14882.8
14852.2
14815
14770.3
14716.9
14653.7
14579.5
14492.9
14392.8
14277.8
14146.7
13998.4
13831.8
13646
13440.3
13214
12967
12699.2
12410.9
12102.5
11774.9
11429.3
11067.2
10690.3
10300.6
9900.31
9491.95
9078.08
8661.41
8244.68
7830.67
7422.08
7021.56
6631.57
6254.43
5892.21
5546.75
5219.62
4912.1
4625.18
4359.55
4115.63
3893.55
3693.19
3514.2
3356.03
3217.94
3099.06
2998.4
2914.86
2847.33
2794.64
2755.62
2729.12
2714.03
2709.28
2713.88
2726.88
2747.45
2774.78
2808.2
2847.07
2890.83
2939.01
2991.17
3046.94
3105.98
3168.02
3232.77
3300.01
3369.5
3441.03
3514.37
3589.32
3665.63
3743.06
3821.37
3900.25
3979.43
4058.58
4137.37
4215.45
4292.45
4368
4441.72
4513.24
4582.19
4648.23
4711.01
4770.24
4825.64
4876.98
4924.07
4966.75
5004.92
5038.52
5067.53
5092
5111.99
5127.61
5138.99
5146.32
5149.75
5149.51
5145.77
5138.75
5128.62
5115.57
5099.73
5081.23
5060.17
5036.61
5010.61
4982.18
4951.32
4918.03
4882.29
4844.09
4803.46
4760.41
4715.03
4667.42
4617.74
4566.19
4513.04
4458.6
4403.22
4347.31
4291.31
4235.69
4180.91
4127.48
4075.86
4026.52
3979.89
3936.37
3896.31
3860.01
3827.71
3799.61
3775.82
3756.4
3741.36
3730.64
3724.13
3721.67
3723.03
3727.96
3736.16
3747.29
3760.98
3776.85
3794.46
3813.37
3833.13
3853.23
3873.14
3892.26
3909.81
3924.72
3935.34
3938.87
3930.32
3900.52
3832.42
3693.98
3424.74
2909.66
1927.58
325.294
749.221
15000
15000
14999.9
14999.8
14999.6
14999.4
14999
14998.5
14997.7
14996.7
14995.2
14993.2
14990.5
14986.9
14982.1
14975.9
14967.9
14957.7
14944.7
14928.4
14908.2
14883.2
14852.6
14815.5
14770.9
14717.7
14654.7
14580.6
14494.3
14394.4
14279.6
14148.8
14000.8
13834.5
13649.1
13443.7
13217.8
12971.1
12703.7
12415.6
12107.5
11780.2
11434.9
11072.9
10696.1
10306.4
9906.06
9497.56
9083.46
8666.45
8249.29
7834.74
7425.51
7024.25
6633.43
6255.37
5892.14
5545.61
5217.34
4908.63
4620.48
4353.59
4108.39
3885.02
3683.38
3503.13
3343.73
3204.44
3084.41
2982.63
2898.04
2829.51
2775.87
2735.96
2708.63
2692.76
2687.28
2691.19
2703.55
2723.51
2750.27
2783.14
2821.48
2864.73
2912.42
2964.1
3019.4
3078
3139.6
3203.93
3270.77
3339.88
3411.06
3484.1
3558.77
3634.85
3712.11
3790.3
3869.13
3948.32
4027.56
4106.51
4184.82
4262.14
4338.08
4412.27
4484.33
4553.89
4620.59
4684.1
4744.1
4800.32
4852.5
4900.44
4943.98
4983.01
5017.46
5047.3
5072.55
5093.28
5109.58
5121.6
5129.48
5133.4
5133.56
5130.16
5123.39
5113.44
5100.48
5084.67
5066.13
5044.98
5021.28
4995.1
4966.45
4935.36
4901.81
4865.82
4827.39
4786.53
4743.28
4697.73
4649.99
4600.22
4548.62
4495.47
4441.06
4385.77
4329.98
4274.14
4218.7
4164.15
4110.95
4059.58
4010.51
3964.15
3920.91
3881.12
3845.08
3813.04
3785.17
3761.6
3742.38
3727.52
3716.95
3710.56
3708.17
3709.59
3714.53
3722.71
3733.78
3747.37
3763.09
3780.51
3799.19
3818.67
3838.47
3858.04
3876.79
3893.96
3908.49
3918.75
3921.97
3913.24
3883.48
3815.79
3678.26
3410.43
2896.9
1915.82
323.898
759.219
15000
15000
14999.9
14999.8
14999.6
14999.4
14999
14998.5
14997.7
14996.7
14995.2
14993.2
14990.5
14986.9
14982.2
14976
14968
14957.8
14944.9
14928.7
14908.5
14883.6
14853.1
14816.1
14771.7
14718.6
14655.7
14581.9
14495.8
14396.2
14281.7
14151.2
14003.6
13837.7
13652.6
13447.6
13222.1
12975.9
12708.8
12421.1
12113.4
11786.4
11441.3
11079.5
10702.8
10313.2
9912.8
9504.16
9089.8
8672.42
8254.77
7839.62
7429.67
7027.57
6635.8
6256.67
5892.29
5544.51
5214.92
4904.83
4615.24
4346.88
4100.18
3875.31
3672.17
3490.44
3329.57
3188.87
3067.46
2964.36
2878.51
2808.78
2754.01
2713.03
2684.69
2667.88
2661.52
2664.6
2676.18
2695.39
2721.45
2753.65
2791.35
2833.99
2881.07
2932.18
2986.92
3044.96
3106.03
3169.85
3236.2
3304.86
3375.62
3448.27
3522.6
3598.4
3675.44
3753.47
3832.22
3911.4
3990.72
4069.84
4148.41
4226.07
4302.45
4377.17
4449.85
4520.11
4587.59
4651.93
4712.83
4769.99
4823.15
4872.1
4916.65
4956.69
4992.14
5022.95
5049.13
5070.74
5087.86
5100.62
5109.17
5113.68
5114.34
5111.35
5104.89
5095.16
5082.33
5066.57
5048.01
5026.76
5002.91
4976.52
4947.64
4916.27
4882.45
4846.17
4807.46
4766.35
4722.87
4677.13
4629.24
4579.36
4527.71
4474.56
4420.21
4365.01
4309.37
4253.72
4198.51
4144.21
4091.29
4040.23
3991.47
3945.44
3902.52
3863.05
3827.32
3795.58
3767.99
3744.67
3725.69
3711.03
3700.63
3694.37
3692.09
3693.56
3698.52
3706.66
3717.65
3731.11
3746.65
3763.84
3782.24
3801.4
3820.82
3839.99
3858.3
3875.01
3889.08
3898.9
3901.74
3892.73
3862.89
3795.42
3658.51
3391.65
2879.12
1898.43
322.495
760.432
15000
15000
14999.9
14999.8
14999.6
14999.4
14999
14998.5
14997.7
14996.7
14995.2
14993.2
14990.5
14987
14982.2
14976.1
14968.1
14958
14945.1
14928.9
14908.8
14884
14853.6
14816.8
14772.5
14719.6
14656.9
14583.3
14497.5
14398.1
14284
14153.9
14006.6
13841.1
13656.4
13451.9
13226.9
12981.1
12714.5
12427.2
12119.9
11793.2
11448.4
11086.9
10710.4
10320.8
9920.43
9511.65
9097.03
8679.26
8261.1
7845.29
7434.56
7031.53
6638.71
6258.41
5892.75
5543.59
5212.52
4900.87
4609.67
4339.64
4091.25
3864.67
3659.82
3476.39
3313.86
3171.52
3048.53
2943.91
2856.6
2785.47
2729.38
2687.15
2657.64
2639.72
2632.32
2634.42
2645.07
2663.42
2688.65
2720.05
2756.99
2798.9
2845.27
2895.69
2949.76
3007.16
3067.6
3130.82
3196.6
3264.71
3334.96
3407.15
3481.08
3556.53
3633.29
3711.11
3789.74
3868.9
3948.28
4027.56
4106.39
4184.43
4261.28
4336.58
4409.94
4480.97
4549.3
4614.59
4676.49
4734.71
4788.98
4839.06
4884.77
4925.96
4962.55
4994.47
5021.72
5044.35
5062.42
5076.05
5085.38
5090.58
5091.82
5089.31
5083.23
5073.78
5061.13
5045.45
5026.88
5005.54
4981.54
4954.93
4925.79
4894.13
4860
4823.42
4784.4
4743
4699.28
4653.33
4605.27
4555.28
4503.58
4450.43
4396.14
4341.06
4285.59
4230.16
4175.21
4121.21
4068.62
4017.9
3969.51
3923.84
3881.29
3842.19
3806.82
3775.41
3748.14
3725.12
3706.4
3691.97
3681.76
3675.66
3673.48
3675
3679.97
3688.07
3698.95
3712.25
3727.57
3744.49
3762.56
3781.34
3800.33
3819.03
3836.83
3853.02
3866.56
3875.86
3878.24
3868.87
3838.85
3771.47
3635
3368.79
2856.27
1872.85
321.53
757.677
15000
15000
14999.9
14999.8
14999.6
14999.4
14999
14998.5
14997.8
14996.7
14995.2
14993.3
14990.6
14987
14982.3
14976.2
14968.3
14958.1
14945.3
14929.2
14909.2
14884.4
14854.2
14817.5
14773.3
14720.6
14658.2
14584.8
14499.2
14400.2
14286.4
14156.7
14009.8
13844.7
13660.6
13456.5
13232
12986.7
12720.6
12433.8
12126.9
11800.7
11456.3
11095
10718.7
10329.2
9928.85
9519.94
9105.07
8686.92
8268.22
7851.73
7440.16
7036.16
6642.22
6260.66
5893.61
5542.95
5210.27
4896.93
4603.95
4332.1
4081.84
3853.37
3646.62
3461.3
3296.9
3152.74
3027.97
2921.63
2832.66
2759.96
2702.36
2658.71
2627.85
2608.66
2600.05
2601.02
2610.61
2627.93
2652.2
2682.69
2718.74
2759.8
2805.35
2854.97
2908.27
2964.92
3024.63
3087.16
3152.26
3219.74
3289.4
3361.05
3434.5
3509.53
3585.95
3663.51
3741.97
3821.06
3900.48
3979.9
4059
4137.41
4214.76
4290.67
4364.75
4436.61
4505.87
4572.17
4635.18
4694.56
4750.04
4801.38
4848.37
4890.84
4928.7
4961.86
4990.32
5014.08
5033.23
5047.85
5058.07
5064.06
5065.99
5064.04
5058.42
5049.3
5036.87
5021.31
5002.76
4981.35
4957.19
4930.37
4900.96
4869.01
4834.55
4797.64
4758.3
4716.6
4672.61
4626.43
4578.2
4528.1
4476.34
4423.2
4368.99
4314.05
4258.77
4203.59
4148.93
4095.26
4043.04
3992.72
3944.73
3899.48
3857.35
3818.65
3783.68
3752.65
3725.74
3703.04
3684.6
3670.42
3660.42
3654.48
3652.41
3653.99
3658.95
3666.99
3677.75
3690.86
3705.93
3722.52
3740.22
3758.56
3777.06
3795.22
3812.45
3828.04
3840.97
3849.69
3851.53
3841.73
3811.46
3744.1
3608.06
3343.03
2833.92
1864.78
321.045
752.338
15000
15000
14999.9
14999.8
14999.6
14999.4
14999
14998.5
14997.8
14996.7
14995.3
14993.3
14990.6
14987.1
14982.4
14976.3
14968.4
14958.3
14945.5
14929.5
14909.5
14884.9
14854.8
14818.2
14774.2
14721.7
14659.5
14586.3
14501.1
14402.4
14288.9
14159.6
14013.2
13848.6
13664.9
13461.3
13237.3
12992.6
12727
12440.8
12134.4
11808.6
11464.6
11103.7
10727.6
10338.3
9937.93
9528.93
9113.83
8695.3
8276.07
7858.89
7446.48
7041.46
6646.35
6263.48
5894.97
5542.71
5208.32
4893.16
4598.29
4324.47
4072.2
3841.67
3632.86
3445.48
3279.04
3132.87
3006.13
2897.89
2807.09
2732.62
2673.35
2628.09
2595.71
2575.08
2565.12
2564.8
2573.17
2589.34
2612.51
2641.94
2676.99
2717.07
2761.69
2810.39
2862.81
2918.6
2977.49
3039.21
3103.55
3170.31
3239.29
3310.31
3383.19
3457.74
3533.74
3610.98
3689.22
3768.19
3847.6
3927.14
4006.48
4085.26
4163.11
4239.64
4314.47
4387.2
4457.44
4524.83
4589
4649.63
4706.43
4759.12
4807.49
4851.37
4890.62
4925.15
4954.93
4979.96
5000.3
5016.02
5027.25
5034.13
5036.84
5035.55
5030.45
5021.73
5009.59
4994.19
4975.69
4954.24
4929.95
4902.92
4873.25
4840.99
4806.2
4768.95
4729.28
4687.26
4643
4596.58
4548.18
4497.96
4446.15
4393.03
4338.9
4284.12
4229.06
4174.15
4119.83
4066.53
4014.71
3964.82
3917.28
3872.48
3830.81
3792.56
3758.02
3727.41
3700.88
3678.53
3660.41
3646.49
3636.71
3630.93
3628.98
3630.61
3635.55
3643.5
3654.11
3667
3681.77
3698.01
3715.28
3733.12
3751.07
3768.63
3785.23
3800.15
3812.42
3820.48
3821.72
3811.43
3780.86
3713.51
3578.03
3314.7
2809.64
1843.97
320.276
751.117
15000
15000
14999.9
14999.8
14999.6
14999.4
14999
14998.5
14997.8
14996.7
14995.3
14993.3
14990.7
14987.1
14982.5
14976.4
14968.5
14958.5
14945.7
14929.8
14909.9
14885.3
14855.3
14818.9
14775.1
14722.7
14660.7
14587.9
14502.9
14404.5
14291.5
14162.5
14016.6
13852.4
13669.3
13466.3
13242.8
12998.7
12733.7
12448
12142.1
11816.9
11473.3
11112.7
10737
10347.8
9947.56
9538.5
9123.21
8704.33
8284.58
7866.72
7453.46
7047.42
6651.12
6266.9
5896.88
5542.96
5206.8
4889.74
4592.87
4316.98
4062.56
3829.86
3618.84
3429.24
3260.6
3112.26
2983.4
2873.08
2780.27
2703.87
2642.74
2595.72
2561.65
2539.42
2527.94
2526.18
2533.18
2548.05
2569.97
2598.22
2632.13
2671.11
2714.67
2762.35
2813.77
2868.6
2926.55
2987.38
3050.86
3116.79
3185
3255.31
3327.54
3401.51
3477.02
3553.87
3631.82
3710.61
3789.97
3869.59
3949.13
4028.26
4106.59
4183.74
4259.33
4332.94
4404.2
4472.71
4538.11
4600.06
4658.24
4712.38
4762.23
4807.61
4848.36
4884.37
4915.59
4942
4963.65
4980.59
4992.93
5000.81
5004.39
5003.84
4999.36
4991.12
4979.32
4964.13
4945.73
4924.27
4899.88
4872.67
4842.74
4810.18
4775.07
4737.48
4697.47
4655.14
4610.59
4563.95
4515.36
4465.03
4413.18
4360.09
4306.07
4251.46
4196.64
4142.03
4088.06
4035.17
3983.79
3934.36
3887.3
3843.01
3801.82
3764.06
3729.99
3699.82
3673.7
3651.72
3633.93
3620.3
3610.74
3605.13
3603.28
3604.95
3609.86
3617.71
3628.13
3640.77
3655.21
3671.03
3687.82
3705.12
3722.46
3739.36
3755.26
3769.45
3780.99
3788.34
3788.92
3778.09
3747.18
3679.84
3545
3283.43
2782.3
1826.31
319.816
749.036
15000
15000
14999.9
14999.8
14999.6
14999.4
14999
14998.5
14997.8
14996.7
14995.3
14993.3
14990.7
14987.2
14982.5
14976.5
14968.6
14958.6
14945.9
14930
14910.2
14885.8
14855.9
14819.6
14775.9
14723.8
14662
14589.4
14504.7
14406.7
14294
14165.5
14019.9
13856.3
13673.7
13471.2
13248.4
13004.8
12740.4
12455.3
12150
11825.3
11482.2
11122.1
10746.6
10357.8
9957.6
9548.54
9133.09
8713.89
8293.67
7875.16
7461.07
7054.03
6656.54
6270.95
5899.41
5543.81
5205.82
4886.81
4587.87
4309.82
4053.17
3818.17
3604.83
3412.9
3241.93
3091.27
2960.13
2847.58
2752.61
2674.11
2610.97
2562.01
2526.1
2502.1
2488.94
2485.59
2491.07
2504.49
2525.04
2551.96
2584.6
2622.36
2664.74
2711.27
2761.59
2815.34
2872.25
2932.07
2994.58
3059.6
3126.94
3196.44
3267.93
3341.24
3416.18
3492.56
3570.14
3648.69
3727.93
3807.56
3887.27
3966.7
4045.48
4123.24
4199.57
4274.08
4346.36
4416.02
4482.69
4546
4605.63
4661.29
4712.7
4759.66
4802
4839.59
4872.36
4900.26
4923.32
4941.59
4955.15
4964.14
4968.69
4968.98
4965.19
4957.51
4946.12
4931.22
4912.97
4891.54
4867.08
4839.72
4809.56
4776.73
4741.3
4703.38
4663.04
4620.4
4575.57
4528.7
4479.94
4429.5
4377.62
4324.57
4270.66
4216.25
4161.69
4107.41
4053.82
4001.36
3950.45
3901.52
3854.98
3811.21
3770.55
3733.3
3699.73
3670.02
3644.33
3622.75
3605.3
3591.96
3582.63
3577.19
3575.43
3577.12
3581.98
3589.7
3599.91
3612.25
3626.31
3641.69
3657.94
3674.64
3691.32
3707.5
3722.64
3736.05
3746.79
3753.37
3753.26
3741.84
3710.56
3643.27
3509.22
3249.88
2753.47
1807.17
319.606
742.91
15000
15000
14999.9
14999.8
14999.6
14999.4
14999
14998.5
14997.8
14996.8
14995.3
14993.4
14990.7
14987.2
14982.6
14976.5
14968.8
14958.8
14946.1
14930.3
14910.5
14886.2
14856.4
14820.2
14776.7
14724.8
14663.2
14590.9
14506.5
14408.8
14296.5
14168.4
14023.3
13860.1
13678
13476.1
13253.9
13010.9
12747.1
12462.7
12158
11833.8
11491.2
11131.6
10756.5
10367.9
9967.94
9558.92
9143.36
8723.91
8303.26
7884.14
7469.26
7061.24
6662.59
6275.66
5902.6
5545.31
5205.48
4884.49
4583.44
4303.18
4044.23
3806.87
3591.12
3396.75
3223.33
3070.23
2936.69
2821.78
2724.5
2643.76
2578.44
2527.4
2489.49
2463.58
2448.59
2443.49
2447.3
2459.13
2478.15
2503.61
2534.85
2571.26
2612.33
2657.6
2706.69
2759.25
2815.01
2873.72
2935.17
2999.16
3065.54
3134.13
3204.79
3277.35
3351.63
3427.45
3504.58
3582.81
3661.85
3741.44
3821.24
3900.92
3980.12
4058.44
4135.49
4210.88
4284.18
4355
4422.95
4487.66
4548.78
4606
4659.04
4707.66
4751.67
4790.93
4825.33
4854.83
4879.4
4899.1
4913.99
4924.18
4929.8
4931.02
4928.02
4920.98
4910.08
4895.53
4877.5
4856.16
4831.68
4804.2
4773.86
4740.77
4705.05
4666.81
4626.16
4583.23
4538.13
4491.03
4442.11
4391.58
4339.68
4286.68
4232.91
4178.7
4124.43
4070.5
4017.32
3965.31
3914.9
3866.5
3820.5
3777.28
3737.17
3700.46
3667.4
3638.18
3612.94
3591.76
3574.66
3561.61
3552.51
3547.23
3545.55
3547.25
3552.04
3559.59
3569.56
3581.56
3595.21
3610.08
3625.76
3641.8
3657.76
3673.17
3687.49
3700.07
3709.96
3715.73
3714.86
3702.82
3671.19
3604
3471.01
3214.91
2728
1811.11
319.704
735.444
15000
15000
14999.9
14999.8
14999.6
14999.4
14999
14998.5
14997.8
14996.8
14995.3
14993.4
14990.8
14987.3
14982.6
14976.6
14968.9
14958.9
14946.3
14930.5
14910.8
14886.6
14856.9
14820.8
14777.5
14725.7
14664.4
14592.3
14508.1
14410.7
14298.8
14171.1
14026.5
13863.9
13682.3
13480.9
13259.3
13016.9
12753.8
12469.9
12165.9
11842.3
11500.3
11141.1
10766.5
10378.2
9978.46
9569.53
9153.93
8734.28
8313.25
7893.59
7477.97
7069.03
6669.26
6281.03
5906.47
5547.53
5205.86
4882.89
4579.73
4297.22
4035.94
3796.17
3577.94
3381.06
3205.11
3049.48
2913.42
2796.03
2696.32
2613.21
2545.59
2492.32
2452.26
2424.29
2407.32
2400.32
2402.32
2412.42
2429.77
2453.64
2483.33
2518.26
2557.9
2601.79
2649.53
2700.8
2755.3
2812.79
2873.06
2935.93
3001.24
3068.84
3138.56
3210.27
3283.8
3358.96
3435.56
3513.38
3592.15
3671.61
3751.44
3831.3
3910.84
3989.68
4067.42
4143.64
4217.94
4289.91
4359.14
4425.25
4487.89
4546.71
4601.42
4651.76
4697.51
4738.51
4774.63
4805.81
4831.99
4853.22
4869.53
4881.02
4887.82
4890.07
4887.95
4881.63
4871.31
4857.18
4839.44
4818.26
4793.82
4766.27
4735.78
4702.48
4666.5
4627.97
4587.03
4543.81
4498.47
4451.16
4402.1
4351.48
4299.57
4246.64
4193.02
4139.04
4085.07
4031.5
3978.75
3927.22
3877.33
3829.48
3784.05
3741.4
3701.86
3665.71
3633.18
3604.46
3579.68
3558.91
3542.17
3529.4
3520.53
3515.39
3513.78
3515.46
3520.14
3527.5
3537.19
3548.82
3562.01
3576.33
3591.38
3606.72
3621.91
3636.5
3649.95
3661.63
3670.64
3675.54
3673.88
3661.21
3629.21
3562.19
3430.43
3177.65
2697.64
1791.7
319.448
730.31
15000
15000
14999.9
14999.8
14999.6
14999.4
14999.1
14998.5
14997.8
14996.8
14995.3
14993.4
14990.8
14987.3
14982.7
14976.7
14969
14959
14946.5
14930.7
14911.1
14886.9
14857.3
14821.4
14778.2
14726.6
14665.4
14593.6
14509.7
14412.6
14301.1
14173.8
14029.6
13867.4
13686.4
13485.6
13264.5
13022.8
12760.3
12477.1
12173.6
11850.7
11509.3
11150.6
10776.5
10388.6
9989.07
9580.29
9164.7
8744.9
8323.58
7903.43
7487.14
7077.34
6676.52
6287.04
5911.05
5550.48
5207.03
4882.1
4576.84
4292.1
4028.47
3786.27
3565.53
3366.09
3187.55
3029.32
2890.66
2770.7
2668.44
2582.85
2512.8
2457.17
2414.83
2384.66
2365.58
2356.55
2356.6
2364.82
2380.37
2402.5
2430.53
2463.85
2501.93
2544.31
2590.59
2640.44
2693.57
2749.74
2808.73
2870.38
2934.52
3001.01
3069.71
3140.47
3213.14
3287.56
3363.53
3440.84
3519.25
3598.49
3678.26
3758.23
3838.05
3917.33
3995.69
4072.71
4147.97
4221.05
4291.55
4359.06
4423.21
4483.65
4540.06
4592.16
4639.7
4682.51
4720.42
4753.35
4781.23
4804.07
4821.9
4834.79
4842.85
4846.23
4845.08
4839.58
4829.93
4816.31
4798.93
4777.98
4753.63
4726.08
4695.49
4662.02
4625.82
4587.05
4545.85
4502.37
4456.8
4409.31
4360.11
4309.43
4257.53
4204.69
4151.23
4097.49
4043.83
3990.65
3938.34
3887.31
3837.96
3790.67
3745.82
3703.77
3664.81
3629.23
3597.25
3569.04
3544.72
3524.36
3507.96
3495.48
3486.82
3481.8
3480.24
3481.88
3486.43
3493.57
3502.94
3514.16
3526.83
3540.56
3554.93
3569.52
3583.9
3597.61
3610.15
3620.9
3628.97
3632.97
3630.49
3617.16
3584.8
3517.99
3387.49
3137.79
2662.96
1756.54
318.524
724.474
15000
15000
14999.9
14999.8
14999.6
14999.4
14999.1
14998.5
14997.8
14996.8
14995.4
14993.4
14990.8
14987.3
14982.7
14976.8
14969
14959.2
14946.6
14930.9
14911.4
14887.3
14857.8
14822
14778.9
14727.4
14666.5
14594.8
14511.2
14414.4
14303.2
14176.3
14032.5
13870.8
13690.3
13490.1
13269.6
13028.5
12766.6
12484
12181.2
11858.9
11518.1
11160
10786.3
10398.9
9999.68
9591.11
9175.59
8755.72
8334.16
7913.6
7496.73
7086.14
6684.35
6293.69
5916.33
5554.21
5209.02
4882.19
4574.86
4287.93
4021.97
3777.34
3554.09
3352.06
3170.9
3010.02
2868.7
2746.09
2641.21
2553.03
2480.46
2422.36
2377.63
2345.13
2323.8
2312.61
2310.57
2316.78
2330.4
2350.67
2376.9
2408.48
2444.88
2485.64
2530.34
2578.66
2630.31
2685.04
2742.65
2802.97
2865.84
2931.12
2998.69
3068.4
3140.13
3213.69
3288.93
3365.64
3443.59
3522.52
3602.14
3682.12
3762.13
3841.79
3920.69
3998.44
4074.6
4148.76
4220.49
4289.38
4355.03
4417.09
4475.21
4529.09
4578.46
4623.11
4662.88
4697.62
4727.28
4751.82
4771.25
4785.63
4795.05
4799.65
4799.57
4794.98
4786.08
4773.06
4756.12
4735.47
4711.31
4683.81
4653.19
4619.6
4583.23
4544.24
4502.82
4459.12
4413.35
4365.7
4316.39
4265.67
4213.79
4161.05
4107.77
4054.28
4000.96
3948.18
3896.32
3845.8
3796.99
3750.28
3706.04
3664.58
3626.22
3591.21
3559.78
3532.08
3508.22
3488.27
3472.21
3460
3451.53
3446.62
3445.08
3446.65
3451.04
3457.91
3466.92
3477.69
3489.82
3502.91
3516.55
3530.34
3543.85
3556.65
3568.24
3578.01
3585.11
3588.17
3584.85
3570.84
3538.12
3471.52
3342.24
3095.53
2627.1
1738.46
318.045
724.584
15000
15000
14999.9
14999.8
14999.6
14999.4
14999.1
14998.5
14997.8
14996.8
14995.4
14993.4
14990.8
14987.4
14982.8
14976.8
14969.1
14959.3
14946.8
14931.1
14911.6
14887.6
14858.2
14822.5
14779.5
14728.2
14667.4
14596
14512.6
14416.1
14305.2
14178.7
14035.3
13874.1
13694
13494.4
13274.5
13033.9
12772.7
12490.8
12188.6
11867
11526.7
11169.3
10796.1
10409.1
10010.3
9601.94
9186.56
8766.68
8344.95
7924.06
7506.67
7095.39
6692.7
6300.96
5922.32
5558.72
5211.87
4883.2
4573.88
4284.79
4016.55
3769.52
3543.77
3339.17
3155.37
2991.82
2847.8
2722.49
2614.94
2524.1
2448.91
2388.26
2341.02
2306.09
2282.4
2268.92
2264.68
2268.75
2280.31
2298.59
2322.9
2352.62
2387.22
2426.23
2469.25
2515.93
2565.98
2619.17
2675.3
2734.18
2795.68
2859.66
2925.99
2994.56
3065.22
3137.84
3212.25
3288.25
3365.64
3444.15
3523.52
3603.42
3683.53
3763.46
3842.83
3921.22
3998.22
4073.39
4146.3
4216.52
4283.66
4347.32
4407.14
4462.81
4514.03
4560.57
4602.22
4638.84
4670.33
4696.64
4717.75
4733.7
4744.58
4750.48
4751.56
4747.98
4739.92
4727.59
4711.18
4690.92
4667
4639.64
4609.04
4575.4
4538.91
4499.77
4458.16
4414.28
4368.34
4320.56
4271.17
4220.41
4168.58
4115.96
4062.87
4009.65
3956.67
3904.29
3852.91
3802.9
3754.65
3708.53
3664.88
3624.03
3586.26
3551.84
3520.95
3493.75
3470.35
3450.79
3435.06
3423.11
3414.8
3409.99
3408.44
3409.91
3414.09
3420.67
3429.28
3439.54
3451.08
3463.49
3476.37
3489.32
3501.93
3513.76
3524.36
3533.12
3539.21
3541.32
3537.12
3522.42
3489.33
3422.95
3294.95
3051.37
2589.59
1715.13
317.508
720.943
15000
15000
14999.9
14999.8
14999.6
14999.4
14999.1
14998.5
14997.8
14996.8
14995.4
14993.5
14990.9
14987.4
14982.8
14976.9
14969.2
14959.4
14946.9
14931.3
14911.9
14887.9
14858.5
14822.9
14780.1
14728.9
14668.3
14597.1
14514
14417.8
14307.2
14181
14038
13877.2
13697.6
13498.5
13279.2
13039.2
12778.6
12497.3
12195.8
11874.8
11535.2
11178.3
10805.7
10419.2
10020.8
9612.76
9197.56
8777.73
8355.91
7934.77
7516.95
7105.05
6701.56
6308.82
5928.99
5564.02
5215.59
4885.17
4573.93
4282.77
4012.31
3762.92
3534.72
3327.58
3141.15
2974.93
2828.21
2700.18
2589.9
2496.36
2418.49
2355.2
2305.37
2267.92
2241.77
2225.89
2219.32
2221.15
2230.53
2246.7
2268.97
2296.72
2329.4
2366.56
2407.77
2452.7
2501.06
2552.61
2607.14
2664.49
2724.51
2787.09
2852.09
2919.41
2988.92
3060.48
3133.95
3209.14
3285.85
3363.85
3442.85
3522.57
3602.67
3682.78
3762.52
3841.48
3919.23
3995.33
4069.35
4140.86
4209.43
4274.66
4336.17
4393.62
4446.69
4495.13
4538.7
4577.24
4610.61
4638.74
4661.6
4679.21
4691.61
4698.91
4701.24
4698.75
4691.63
4680.07
4664.28
4644.48
4620.9
4593.74
4563.24
4529.61
4493.07
4453.81
4412.07
4368.05
4321.99
4274.1
4224.65
4173.9
4122.12
4069.64
4016.75
3963.81
3911.18
3859.22
3808.31
3758.83
3711.14
3665.6
3622.55
3582.3
3545.13
3511.27
3480.92
3454.22
3431.26
3412.08
3396.67
3384.94
3376.79
3372.02
3370.44
3371.77
3375.72
3381.96
3390.13
3399.86
3410.77
3422.45
3434.53
3446.59
3458.25
3469.1
3478.66
3486.38
3491.44
3492.56
3487.47
3472.07
3438.62
3372.47
3245.76
3005.36
2549.68
1683.58
316.935
722.772
15000
15000
14999.9
14999.8
14999.6
14999.4
14999.1
14998.5
14997.8
14996.8
14995.4
14993.5
14990.9
14987.4
14982.9
14976.9
14969.3
14959.5
14947.1
14931.5
14912.1
14888.2
14858.9
14823.4
14780.7
14729.7
14669.2
14598.2
14515.3
14419.4
14309.1
14183.2
14040.6
13880.3
13701.2
13502.5
13283.7
13044.4
12784.4
12503.8
12202.9
11882.5
11543.6
11187.3
10815.2
10429.2
10031.2
9623.56
9208.59
8788.88
8367.03
7945.69
7527.52
7115.1
6710.9
6317.26
5936.34
5570.09
5220.19
4888.12
4575.05
4281.9
4009.3
3757.64
3527.04
3317.4
3128.4
2959.53
2810.12
2679.36
2566.34
2470.06
2389.47
2323.49
2271.01
2230.95
2202.25
2183.89
2174.9
2174.38
2181.48
2195.43
2215.55
2241.21
2271.87
2307.06
2346.37
2389.45
2436.01
2485.81
2538.65
2594.37
2652.82
2713.89
2777.46
2843.43
2911.68
2982.09
3054.51
3128.79
3204.72
3282.08
3360.62
3440.04
3520.02
3600.21
3680.21
3759.63
3838.03
3914.98
3990.04
4062.76
4132.7
4199.45
4262.61
4321.82
4376.73
4427.07
4472.58
4513.06
4548.35
4578.36
4603.03
4622.34
4636.35
4645.13
4648.79
4647.48
4641.37
4630.68
4615.59
4596.35
4573.18
4546.31
4515.98
4482.43
4445.89
4406.58
4364.76
4320.65
4274.49
4226.54
4177.06
4126.33
4074.64
4022.3
3969.63
3916.99
3864.71
3813.17
3762.73
3713.77
3666.64
3621.68
3579.23
3539.57
3502.99
3469.69
3439.87
3413.65
3391.11
3372.29
3357.16
3345.64
3337.61
3332.87
3331.22
3332.38
3336.05
3341.92
3349.61
3358.76
3368.99
3379.91
3391.14
3402.29
3412.97
3422.79
3431.29
3437.94
3441.95
3442.06
3436.07
3419.96
3386.13
3320.23
3194.85
2957.69
2508.59
1654.58
316.51
731.003
15000
15000
14999.9
14999.8
14999.6
14999.4
14999.1
14998.6
14997.8
14996.8
14995.4
14993.5
14990.9
14987.5
14982.9
14977
14969.3
14959.6
14947.2
14931.7
14912.3
14888.5
14859.3
14823.9
14781.3
14730.4
14670.1
14599.3
14516.6
14420.9
14310.9
14185.4
14043.2
13883.3
13704.7
13506.5
13288.3
13049.5
12790.1
12510.1
12209.9
11890.2
11551.8
11196.2
10824.7
10439.2
10041.7
9634.37
9219.68
8800.12
8378.3
7956.85
7538.4
7125.53
6720.71
6326.27
5944.36
5576.92
5225.66
4892.04
4577.25
4282.21
4007.57
3753.72
3520.81
3308.74
3117.22
2945.75
2793.67
2660.21
2544.46
2445.44
2362.11
2293.4
2238.22
2195.5
2164.19
2143.27
2131.78
2128.81
2133.53
2145.17
2163.03
2186.51
2215.05
2248.17
2285.47
2326.6
2371.26
2419.22
2470.28
2524.27
2581.05
2640.52
2702.57
2767.09
2833.98
2903.13
2974.41
3047.66
3122.7
3199.32
3277.28
3356.29
3436.04
3516.18
3596.34
3676.11
3755.06
3832.77
3908.77
3982.61
4053.85
4122.06
4186.82
4247.75
4304.48
4356.7
4404.14
4446.57
4483.81
4515.73
4542.25
4563.33
4579
4589.32
4594.39
4594.34
4589.34