<?xml version="1.0"?>
<VTKFile type="ImageData" version="0.1" byte_order="LittleEndian">
  <ImageData Origin="0 0 0" Spacing="1e-05 1e-05 1e-05" WholeExtent="0 191 0 191 0 0">
    <Piece Extent="0 191 0 191 0 0">
      <CellData Scalars="T">
        <DataArray type="Float32" Name="T" format="ascii" NumberOfComponents="1">
474.35
15000
15000
15000
15000
14999.9
14999.9
14999.8
14999.7
14999.6
14999.4
14999.1
14998.8
14998.3
14997.6
14996.7
14995.5
14993.8
14991.7
14989
14985.5
14981.1
14975.4
14968.4
14959.5
14948.6
14935.2
14918.8
14898.8
14874.9
14846.2
14812
14771.7
14724.4
14669.2
14605.2
14531.5
14447
14351
14242.3
14120.1
13983.5
13831.7
13664
13479.9
13278.9
13060.7
12825.2
12572.5
12302.9
12016.8
11715
11398.4
11068.1
10725.5
10372.1
10009.6
9639.77
9264.66
8886.26
8506.69
8128.07
7752.52
7382.12
7018.87
6664.68
6321.33
5990.44
5673.45
5371.65
5086.08
4817.61
4566.89
4334.37
4120.31
3924.75
3747.59
3588.54
3447.2
3323
3215.31
3123.38
3046.43
2983.59
2934
2896.77
2871.01
2855.86
2850.46
2854.01
2865.73
2884.9
2910.84
2942.93
2980.58
3023.26
3070.49
3121.81
3176.83
3235.15
3296.43
3360.34
3426.57
3494.82
3564.8
3636.23
3708.81
3782.27
3856.31
3930.63
4004.94
4078.94
4152.3
4224.72
4295.88
4365.48
4433.19
4498.74
4561.83
4622.18
4679.55
4733.71
4784.45
4831.59
4874.99
4914.54
4950.13
4981.73
5009.3
5032.85
5052.41
5068.04
5079.8
5087.8
5092.13
5092.91
5090.26
5084.29
5075.13
5062.89
5047.67
5029.58
5008.71
4985.14
4958.96
4930.23
4899.05
4865.48
4829.62
4791.57
4751.42
4709.33
4665.44
4619.94
4573.02
4524.92
4475.9
4426.24
4376.26
4326.27
4276.63
4227.68
4179.77
4133.27
4088.51
4045.83
4005.53
3967.9
3933.19
3901.6
3873.32
3848.47
3827.14
3809.37
3795.14
3784.38
3776.99
3772.76
3771.41
3772.54
3775.54
3779.41
3782.52
3781.99
3772.61
3744.73
3680.18
3544.3
3270.06
2724.77
1634.36
316.645
875.068
15000
15000
15000
15000
14999.9
14999.9
14999.8
14999.7
14999.6
14999.4
14999.1
14998.8
14998.3
14997.6
14996.7
14995.5
14993.8
14991.8
14989
14985.5
14981.1
14975.5
14968.4
14959.6
14948.6
14935.2
14918.8
14898.9
14874.9
14846.2
14812.1
14771.8
14724.5
14669.3
14605.4
14531.7
14447.3
14351.2
14242.6
14120.4
13983.8
13832.1
13664.5
13480.4
13279.5
13061.3
12825.9
12573.2
12303.6
12017.6
11715.8
11399.2
11069
10726.4
10373
10010.4
9640.6
9265.45
8887
8507.37
8128.66
7753.02
7382.51
7019.14
6664.81
6321.31
5990.26
5673.1
5371.11
5085.35
4816.68
4565.76
4333.04
4118.76
3922.99
3745.62
3586.37
3444.81
3320.41
3212.52
3120.4
3043.26
2980.25
2930.49
2893.09
2867.17
2851.87
2846.32
2849.73
2861.32
2880.37
2906.19
2938.17
2975.71
3018.29
3065.42
3116.65
3171.57
3229.81
3291.01
3354.85
3421.01
3489.2
3559.13
3630.51
3703.06
3776.5
3850.52
3924.84
3999.16
4073.17
4146.56
4219.02
4290.24
4359.9
4427.69
4493.32
4556.5
4616.96
4674.44
4728.72
4779.59
4826.86
4870.39
4910.07
4945.8
4977.53
5005.23
5028.9
5048.58
5064.32
5076.18
5084.27
5088.69
5089.54
5086.95
5081.04
5071.92
5059.71
5044.51
5026.43
5005.57
4982
4955.8
4927.07
4895.87
4862.29
4826.4
4788.33
4748.17
4706.06
4662.16
4616.64
4569.72
4521.62
4472.6
4422.96
4372.99
4323.02
4273.4
4224.48
4176.61
4130.14
4085.42
4042.77
4002.52
3964.92
3930.24
3898.7
3870.45
3845.63
3824.33
3806.59
3792.38
3781.64
3774.26
3770.03
3768.69
3769.82
3772.8
3776.67
3779.78
3779.27
3769.99
3742.41
3678.75
3545.61
3280.33
2766.86
1799.93
333.076
873.596
15000
15000
15000
15000
14999.9
14999.9
14999.8
14999.7
14999.6
14999.4
14999.1
14998.8
14998.3
14997.6
14996.7
14995.5
14993.9
14991.8
14989
14985.6
14981.1
14975.5
14968.4
14959.6
14948.7
14935.3
14918.9
14899
14875
14846.4
14812.3
14772
14724.8
14669.6
14605.7
14532
14447.7
14351.7
14243.2
14121.1
13984.6
13832.9
13665.4
13481.5
13280.6
13062.5
12827.2
12574.6
12305.1
12019.1
11717.4
11400.9
11070.7
10728.1
10374.7
10012.1
9642.26
9267.03
8888.48
8508.71
8129.85
7754.02
7383.29
7019.68
6665.08
6321.29
5989.91
5672.41
5370.06
5083.92
4814.85
4563.53
4330.39
4115.7
3919.51
3741.72
3582.05
3440.08
3315.28
3206.99
3114.49
3036.98
2973.61
2923.5
2885.78
2859.54
2843.94
2838.1
2841.24
2852.57
2871.36
2896.95
2928.69
2966.01
3008.39
3055.31
3106.36
3161.1
3219.17
3280.22
3343.91
3409.94
3478.01
3547.84
3619.13
3691.61
3764.99
3838.98
3913.29
3987.62
4061.67
4135.11
4207.66
4278.97
4348.76
4416.7
4482.5
4545.87
4606.54
4664.25
4718.76
4769.88
4817.41
4861.2
4901.14
4937.14
4969.13
4997.08
5021
5040.92
5056.87
5068.94
5077.22
5081.8
5082.8
5080.34
5074.53
5065.49
5053.35
5038.2
5020.14
4999.29
4975.71
4949.51
4920.75
4889.52
4855.9
4819.98
4781.87
4741.67
4699.53
4655.6
4610.07
4563.14
4515.04
4466.03
4416.4
4366.46
4316.54
4266.97
4218.1
4170.29
4123.89
4079.24
4036.67
3996.49
3958.98
3924.38
3892.9
3864.73
3839.98
3818.74
3801.04
3786.87
3776.17
3768.81
3764.6
3763.25
3764.37
3767.34
3771.19
3774.29
3773.81
3764.66
3737.49
3674.89
3544.41
3285.48
2785.6
1835.28
332.279
871.957
15000
15000
15000
15000
14999.9
14999.9
14999.8
14999.7
14999.6
14999.4
14999.2
14998.8
14998.3
14997.6
14996.7
14995.5
14993.9
14991.8
14989.1
14985.6
14981.1
14975.5
14968.5
14959.7
14948.8
14935.3
14919
14899.1
14875.2
14846.6
14812.5
14772.3
14725.1
14670
14606.2
14532.6
14448.4
14352.5
14244
14122
13985.7
13834.2
13666.8
13483
13282.2
13064.3
12829.1
12576.7
12307.3
12021.4
11719.8
11403.4
11073.2
10730.6
10377.2
10014.6
9644.71
9269.38
8890.68
8510.72
8131.63
7755.53
7384.48
7020.51
6665.51
6321.28
5989.43
5671.42
5368.53
5081.83
4812.18
4560.26
4326.51
4111.19
3914.38
3735.96
3575.67
3433.09
3307.69
3198.81
3105.74
3027.67
2963.76
2913.14
2874.92
2848.22
2832.16
2825.89
2828.62
2839.55
2857.97
2883.19
2914.59
2951.59
2993.65
3040.28
3091.03
3145.51
3203.33
3264.13
3327.61
3393.44
3461.33
3531
3602.16
3674.53
3747.83
3821.77
3896.06
3970.4
4044.49
4118.02
4190.68
4262.15
4332.12
4400.28
4466.33
4529.98
4590.96
4648.99
4703.86
4755.34
4803.25
4847.44
4887.77
4924.16
4956.54
4984.87
5009.16
5029.42
5045.71
5058.09
5066.64
5071.48
5072.7
5070.42
5064.77
5055.86
5043.81
5028.73
5010.72
4989.89
4966.31
4940.09
4911.29
4880.02
4846.35
4810.37
4772.2
4731.96
4689.77
4645.81
4600.25
4553.3
4505.2
4456.21
4406.62
4356.72
4306.85
4257.35
4208.57
4160.85
4114.56
4070.02
4027.56
3987.5
3950.1
3915.61
3884.25
3856.18
3831.53
3810.37
3792.75
3778.65
3767.99
3760.66
3756.47
3755.12
3756.23
3759.17
3762.98
3766.06
3765.59
3756.56
3729.73
3667.98
3539.35
3283.92
2789.14
1842.4
331.898
868.457
15000
15000
15000
15000
14999.9
14999.9
14999.8
14999.7
14999.6
14999.4
14999.2
14998.8
14998.3
14997.6
14996.7
14995.5
14993.9
14991.8
14989.1
14985.6
14981.2
14975.6
14968.5
14959.7
14948.8
14935.5
14919.1
14899.3
14875.4
14846.9
14812.9
14772.7
14725.6
14670.6
14606.8
14533.4
14449.2
14353.5
14245.1
14123.3
13987.1
13835.8
13668.6
13484.9
13284.4
13066.7
12831.6
12579.4
12310.1
12024.4
11722.9
11406.6
11076.5
10734
10380.6
10018
9647.94
9272.47
8893.59
8513.39
8134
7757.54
7386.08
7021.64
6666.12
6321.32
5988.85
5670.18
5366.58
5079.14
4808.73
4556.02
4321.46
4105.33
3907.7
3728.45
3567.34
3423.96
3297.76
3188.11
3094.28
3015.47
2950.86
2899.55
2860.67
2833.34
2816.68
2809.84
2812.01
2822.41
2840.33
2865.07
2896.01
2932.57
2974.21
3020.44
3070.82
3124.93
3182.41
3242.89
3306.07
3371.63
3439.28
3508.73
3579.71
3651.93
3725.12
3798.99
3873.25
3947.6
4021.75
4095.38
4168.18
4239.84
4310.05
4378.5
4444.87
4508.88
4570.26
4628.73
4684.05
4736.02
4784.43
4829.13
4869.98
4906.89
4939.78
4968.62
4993.39
5014.12
5030.84
5043.62
5052.55
5057.72
5059.23
5057.21
5051.78
5043.04
5031.12
5016.14
4998.19
4977.38
4953.81
4927.56
4898.73
4867.4
4833.66
4797.62
4759.38
4719.07
4676.83
4632.82
4587.23
4540.26
4492.17
4443.2
4393.64
4343.81
4294.02
4244.61
4195.94
4148.35
4102.19
4057.79
4015.49
3975.58
3938.33
3904
3872.78
3844.85
3820.32
3799.28
3781.76
3767.73
3757.14
3749.85
3745.68
3744.33
3745.42
3748.32
3752.08
3755.1
3754.62
3745.65
3719.07
3657.94
3530.64
3277.97
2789.63
1864.21
331.881
871.015
15000
15000
15000
15000
14999.9
14999.9
14999.8
14999.7
14999.6
14999.4
14999.2
14998.8
14998.3
14997.6
14996.7
14995.5
14993.9
14991.8
14989.1
14985.6
14981.2
14975.6
14968.6
14959.8
14949
14935.6
14919.3
14899.5
14875.7
14847.2
14813.3
14773.2
14726.1
14671.2
14607.6
14534.2
14450.3
14354.7
14246.5
14124.9
13988.9
13837.7
13670.8
13487.3
13287
13069.5
12834.7
12582.6
12313.6
12028.1
11726.8
11410.5
11080.6
10738.1
10384.7
10022
9651.92
9276.29
8897.18
8516.69
8136.94
7760.05
7388.1
7023.09
6666.95
6321.44
5988.22
5668.74
5364.29
5075.95
4804.61
4550.93
4315.38
4098.25
3899.6
3719.35
3557.23
3412.84
3285.66
3175.04
3080.27
3000.56
2935.06
2882.91
2843.21
2815.09
2797.67
2790.11
2791.59
2801.34
2818.63
2842.77
2873.13
2909.14
2950.25
2995.98
3045.87
3099.53
3156.58
3216.67
3279.47
3344.69
3412.03
3481.2
3551.95
3623.98
3697.01
3770.78
3844.99
3919.35
3993.55
4067.3
4140.28
4212.17
4282.66
4351.44
4418.21
4482.66
4544.52
4603.52
4659.4
4711.96
4760.99
4806.31
4847.8
4885.35
4918.88
4948.33
4973.71
4995.01
5012.27
5025.56
5034.95
5040.54
5042.42
5040.72
5035.56
5027.04
5015.29
5000.43
4982.57
4961.8
4938.24
4911.97
4883.1
4851.7
4817.89
4781.77
4743.45
4703.06
4660.75
4616.69
4571.06
4524.08
4475.99
4427.05
4377.55
4327.79
4278.1
4228.81
4180.28
4132.84
4086.85
4042.63
4000.51
3960.79
3923.73
3889.58
3858.55
3830.78
3806.41
3785.51
3768.1
3754.18
3743.66
3736.43
3732.27
3730.92
3731.97
3734.82
3738.51
3741.46
3740.91
3731.95
3705.53
3644.87
3518.63
3268.18
2783.72
1859.53
331.265
882.897
15000
15000
15000
15000
14999.9
14999.9
14999.8
14999.7
14999.6
14999.4
14999.2
14998.8
14998.3
14997.6
14996.7
14995.5
14993.9
14991.8
14989.1
14985.7
14981.3
14975.7
14968.7
14959.9
14949.1
14935.8
14919.5
14899.8
14876
14847.5
14813.7
14773.7
14726.8
14672
14608.5
14535.3
14451.5
14356
14248.1
14126.6
13990.9
13840
13673.3
13490.1
13290
13072.8
12838.3
12586.5
12317.7
12032.4
11731.2
11415.2
11085.3
10742.9
10389.5
10026.8
9656.59
9280.79
8901.43
8520.61
8140.45
7763.07
7390.55
7024.89
6668.02
6321.71
5987.61
5667.19
5361.74
5072.36
4799.92
4545.1
4308.4
4090.09
3890.25
3708.8
3545.49
3399.93
3271.58
3159.82
3063.94
2983.14
2916.59
2863.43
2822.75
2793.7
2775.38
2766.95
2767.61
2776.56
2793.09
2816.5
2846.17
2881.51
2921.99
2967.11
3016.42
3069.53
3126.06
3185.66
3248.01
3312.81
3379.77
3448.61
3519.06
3590.85
3663.7
3737.33
3811.47
3885.82
3960.08
4033.94
4107.11
4179.26
4250.07
4319.24
4386.46
4451.42
4513.84
4573.45
4629.99
4683.24
4732.98
4779.05
4821.29
4859.59
4893.86
4924.05
4950.14
4972.12
4990.03
5003.92
5013.86
5019.95
5022.28
5020.97
5016.13
5007.88
4996.35
4981.65
4963.89
4943.19
4919.65
4893.36
4864.44
4832.99
4799.1
4762.89
4724.48
4684.01
4641.63
4597.51
4551.84
4504.85
4456.76
4407.86
4358.42
4308.75
4259.18
4210.04
4161.67
4114.41
4068.62
4024.61
3982.71
3943.21
3906.38
3872.45
3841.62
3814.05
3789.86
3769.12
3751.86
3738.05
3727.62
3720.43
3716.3
3714.94
3715.95
3718.73
3722.32
3725.16
3724.53
3715.52
3689.19
3628.86
3503.38
3254.15
2770.42
1840.2
330.201
882.332
15000
15000
15000
15000
14999.9
14999.9
14999.8
14999.7
14999.6
14999.4
14999.2
14998.8
14998.3
14997.6
14996.7
14995.5
14993.9
14991.9
14989.2
14985.7
14981.3
14975.7
14968.8
14960
14949.2
14935.9
14919.7
14900
14876.3
14847.9
14814.2
14774.3
14727.5
14672.8
14609.4
14536.4
14452.8
14357.6
14249.8
14128.6
13993.1
13842.5
13676
13493.2
13293.4
13076.5
12842.2
12590.7
12322.2
12037.2
11736.3
11420.4
11090.6
10748.4
10395
10032.3
9661.92
9285.93
8906.3
8525.12
8144.52
7766.6
7393.44
7027.06
6669.37
6322.16
5987.08
5665.61
5359.03
5068.46
4794.78
4538.69
4300.68
4081.02
3879.83
3697.02
3532.35
3385.43
3255.75
3142.68
3045.52
2963.47
2895.71
2841.36
2799.56
2769.41
2750.05
2740.62
2740.3
2748.33
2763.97
2786.54
2815.39
2849.95
2889.68
2934.08
2982.72
3035.18
3091.1
3150.12
3211.93
3276.23
3342.74
3411.18
3481.27
3552.77
3625.38
3698.85
3772.89
3847.2
3921.51
3995.49
4068.86
4141.28
4212.44
4282.04
4349.76
4415.29
4478.34
4538.63
4595.91
4649.93
4700.49
4747.4
4790.49
4829.65
4864.78
4895.81
4922.71
4945.48
4964.14
4978.72
4989.31
4995.98
4998.83
4997.98
4993.53
4985.6
4974.33
4959.82
4942.2
4921.58
4898.08
4871.79
4842.83
4811.31
4777.35
4741.05
4702.55
4661.99
4619.53
4575.35
4529.65
4482.64
4434.58
4385.72
4336.36
4286.8
4237.36
4188.39
4140.2
4093.16
4047.59
4003.83
3962.18
3922.94
3886.36
3852.67
3822.08
3794.74
3770.75
3750.2
3733.09
3719.41
3709.07
3701.94
3697.83
3696.46
3697.41
3700.1
3703.57
3706.28
3705.52
3696.43
3670.11
3610.03
3485.17
3237.2
2756.09
1835.72
329.477
885.95
15000
15000
15000
15000
14999.9
14999.9
14999.8
14999.7
14999.6
14999.4
14999.2
14998.8
14998.3
14997.6
14996.7
14995.5
14993.9
14991.9
14989.2
14985.8
14981.4
14975.8
14968.8
14960.1
14949.4
14936.1
14920
14900.3
14876.7
14848.4
14814.7
14774.9
14728.2
14673.7
14610.5
14537.6
14454.2
14359.2
14251.7
14130.8
13995.6
13845.2
13679.1
13496.5
13297.1
13080.5
12846.6
12595.4
12327.2
12042.4
11741.8
11426.1
11096.5
10754.4
10401.1
10038.3
9667.86
9291.67
8911.76
8530.21
8149.12
7770.62
7396.78
7029.61
6671.04
6322.85
5986.7
5664.07
5356.27
5064.39
4789.35
4531.84
4292.37
4071.23
3868.53
3684.2
3518.01
3369.58
3238.41
3123.87
3025.26
2941.8
2872.67
2817
2773.91
2742.53
2721.97
2711.39
2709.98
2716.95
2731.58
2753.17
2781.09
2814.75
2853.62
2897.2
2945.05
2996.77
3051.97
3110.32
3171.51
3235.23
3301.21
3369.17
3438.86
3510
3582.33
3655.58
3729.48
3803.74
3878.06
3952.16
4025.72
4098.42
4169.96
4240.01
4308.26
4374.4
4438.14
4499.19
4557.27
4612.16
4663.62
4711.45
4755.49
4795.61
4831.69
4863.67
4891.49
4915.14
4934.64
4950.01
4961.33
4968.67
4972.12
4971.79
4967.79
4960.24
4949.28
4935
4917.56
4897.05
4873.6
4847.33
4818.34
4786.77
4752.73
4716.34
4677.75
4637.11
4594.57
4550.34
4504.6
4457.59
4409.55
4360.75
4311.48
4262.04
4212.76
4163.97
4116
4069.2
4023.89
3980.39
3939.02
3900.06
3863.77
3830.36
3800.03
3772.94
3749.18
3728.82
3711.89
3698.34
3688.1
3681.03
3676.94
3675.53
3676.42
3679
3682.33
3684.88
3683.95
3674.74
3648.4
3588.49
3464.13
3217.01
2736.11
1805.63
328.371
883.495
15000
15000
15000
15000
14999.9
14999.9
14999.8
14999.7
14999.6
14999.4
14999.2
14998.8
14998.3
14997.6
14996.7
14995.5
14994
14991.9
14989.2
14985.8
14981.4
14975.9
14968.9
14960.3
14949.5
14936.3
14920.2
14900.6
14877.1
14848.8
14815.3
14775.6
14729
14674.6
14611.6
14538.9
14455.7
14361
14253.7
14133.1
13998.1
13848.1
13682.3
13500.1
13301.1
13084.8
12851.3
12600.4
12332.6
12048.1
11747.7
11432.3
11102.9
10760.9
10407.7
10044.9
9674.33
9297.96
8917.76
8535.82
8154.24
7775.13
7400.58
7032.58
6673.07
6323.84
5986.54
5662.68
5353.54
5060.26
4783.75
4524.72
4283.66
4060.91
3856.57
3670.58
3502.73
3352.64
3219.82
3103.66
3003.46
2918.44
2847.79
2790.64
2746.13
2713.36
2691.46
2679.6
2676.95
2682.74
2696.22
2716.71
2743.58
2776.23
2814.12
2856.77
2903.73
2954.6
3009
3066.59
3127.06
3190.12
3255.49
3322.9
3392.1
3462.82
3534.81
3607.8
3681.51
3755.68
3830
3904.19
3977.93
4050.92
4122.83
4193.35
4262.16
4328.95
4393.42
4455.27
4514.23
4570.04
4622.47
4671.31
4716.39
4757.55
4794.68
4827.69
4856.52
4881.15
4901.58
4917.84
4929.98
4938.06
4942.19
4942.45
4938.97
4931.86
4921.25
4907.26
4890.02
4869.65
4846.29
4820.05
4791.06
4759.45
4725.34
4688.87
4650.2
4609.47
4566.87
4522.58
4476.82
4429.81
4381.8
4333.07
4283.91
4234.61
4185.51
4136.92
4089.19
4042.65
3997.62
3954.42
3913.36
3874.71
3838.72
3805.62
3775.58
3748.75
3725.24
3705.1
3688.34
3674.93
3664.8
3657.79
3653.7
3652.26
3653.06
3655.51
3658.68
3661.03
3659.91
3650.54
3624.13
3564.36
3440.46
3194.29
2715.41
1794.08
328.036
880.143
15000
15000
15000
15000
14999.9
14999.9
14999.8
14999.7
14999.6
14999.4
14999.2
14998.8
14998.3
14997.6
14996.7
14995.6
14994
14991.9
14989.3
14985.8
14981.5
14976
14969
14960.4
14949.7
14936.5
14920.5
14900.9
14877.4
14849.3
14815.8
14776.3
14729.8
14675.6
14612.8
14540.3
14457.3
14362.8
14255.8
14135.4
14000.8
13851.2
13685.7
13503.9
13305.2
13089.3
12856.2
12605.7
12338.2
12054.1
11754
11438.9
11109.7
10767.8
10414.7
10051.9
9681.3
9304.75
8924.28
8541.94
8159.86
7780.13
7404.83
7035.98
6675.49
6325.17
5986.68
5661.51
5350.98
5056.21
4778.14
4517.47
4274.74
4050.25
3844.15
3656.38
3486.74
3334.87
3200.27
3082.34
2980.41
2893.69
2821.38
2762.61
2716.52
2682.23
2658.87
2645.59
2641.57
2646.04
2658.25
2677.52
2703.21
2734.73
2771.54
2813.15
2859.11
2909.02
2962.52
3019.25
3078.91
3141.22
3205.9
3272.68
3341.32
3411.56
3483.14
3555.8
3629.29
3703.31
3777.59
3851.84
3925.75
3999
4071.29
4142.29
4211.67
4279.14
4344.36
4407.06
4466.93
4523.73
4577.19
4627.11
4673.3
4715.59
4753.85
4787.97
4817.91
4843.6
4865.05
4882.27
4895.31
4904.22
4909.1
4910.03
4907.13
4900.52
4890.32
4876.66
4859.67
4839.49
4816.24
4790.06
4761.09
4729.45
4695.29
4658.76
4620.01
4579.21
4536.55
4492.22
4446.44
4399.44
4351.48
4302.83
4253.79
4204.65
4155.74
4107.39
4059.91
4013.65
3968.93
3926.06
3885.32
3847.01
3811.35
3778.57
3748.84
3722.3
3699.04
3679.12
3662.56
3649.3
3639.26
3632.3
3628.22
3626.73
3627.43
3629.73
3632.7
3634.84
3633.49
3623.92
3597.43
3537.79
3414.52
3170.06
2695.87
1787.98
328.129
880.025
15000
15000
15000
15000
14999.9
14999.9
14999.8
14999.7
14999.6
14999.4
14999.2
14998.8
14998.3
14997.7
14996.8
14995.6
14994
14992
14989.3
14985.9
14981.6
14976.1
14969.1
14960.5
14949.9
14936.7
14920.7
14901.3
14877.8
14849.8
14816.4
14777
14730.7
14676.6
14613.9
14541.7
14458.9
14364.6
14257.9
14137.9
14003.6
13854.3
13689.2
13507.8
13309.5
13094
12861.3
12611.2
12344.1
12060.4
11760.6
11445.8
11116.9
10775.2
10422.1
10059.4
9688.7
9311.99
8931.25
8548.54
8165.95
7785.6
7409.55
7039.83
6678.34
6326.9
5987.16
5660.65
5348.66
5052.35
4772.64
4510.27
4265.77
4039.46
3831.5
3641.84
3470.3
3316.52
3180.01
3060.21
2956.41
2867.86
2793.75
2733.24
2685.45
2649.5
2624.54
2609.71
2604.19
2607.21
2618.03
2635.96
2660.35
2690.62
2726.23
2766.69
2811.55
2860.41
2912.89
2968.67
3027.43
3088.9
3152.8
3218.87
3286.87
3356.54
3427.65
3499.93
3573.12
3646.95
3721.15
3795.42
3869.46
3942.96
4015.6
4087.07
4157.03
4225.18
4291.18
4354.75
4415.57
4473.39
4527.94
4579
4626.36
4669.84
4709.3
4744.63
4775.74
4802.58
4825.13
4843.4
4857.41
4867.23
4872.93
4874.6
4872.35
4866.3
4856.57
4843.29
4826.6
4806.64
4783.55
4757.47
4728.53
4696.9
4662.71
4626.13
4587.32
4546.47
4503.76
4459.4
4413.61
4366.64
4318.74
4270.19
4221.28
4172.32
4123.62
4075.51
4028.32
3982.36
3937.97
3895.44
3855.06
3817.09
3781.79
3749.35
3719.94
3693.69
3670.71
3651.03
3634.65
3621.54
3611.6
3604.69
3600.59
3599.04
3599.62
3601.74
3604.5
3606.38
3604.77
3594.99
3568.41
3508.96
3386.47
3144.11
2674.55
1774.26
328.339
877.129
15000
15000
15000
15000
14999.9
14999.9
14999.8
14999.7
14999.6
14999.4
14999.2
14998.8
14998.3
14997.7
14996.8
14995.6
14994
14992
14989.3
14985.9
14981.6
14976.1
14969.2
14960.7
14950
14936.9
14921
14901.6
14878.2
14850.3
14817
14777.7
14731.5
14677.6
14615.1
14543.1
14460.5
14366.5
14260.1
14140.4
14006.4
13857.5
13692.8
13511.7
13313.9
13098.8
12866.5
12616.9
12350.2
12066.8
11767.4
11452.9
11124.3
10782.8
10429.9
10067.2
9696.48
9319.63
8938.64
8555.56
8172.49
7791.53
7414.74
7044.13
6681.64
6329.06
5988.07
5660.18
5346.7
5048.8
4767.41
4503.27
4256.93
4028.73
3818.82
3627.19
3453.65
3297.86
3159.35
3037.54
2931.77
2841.27
2765.25
2702.87
2653.25
2615.52
2588.83
2572.32
2565.19
2566.64
2575.94
2592.4
2615.38
2644.3
2678.59
2717.79
2761.44
2809.13
2860.51
2915.23
2973
3033.53
3096.56
3161.83
3229.11
3298.15
3368.7
3440.52
3513.36
3586.94
3661
3735.24
3809.37
3883.08
3956.06
4027.97
4098.5
4167.32
4234.11
4298.56
4360.36
4419.23
4474.91
4527.15
4575.73
4620.46
4661.18
4697.77
4730.13
4758.19
4781.92
4801.31
4816.38
4827.18
4833.78
4836.26
4834.73
4829.3
4820.1
4807.26
4790.93
4771.24
4748.34
4722.39
4693.53
4661.92
4627.73
4591.13
4552.28
4511.39
4468.65
4424.28
4378.5
4331.56
4283.74
4235.3
4186.54
4137.77
4089.31
4041.46
3994.57
3948.94
3904.89
3862.71
3822.7
3785.11
3750.18
3718.09
3689.01
3663.08
3640.37
3620.92
3604.74
3591.78
3581.93
3575.05
3570.93
3569.29
3569.73
3571.65
3574.16
3575.76
3573.88
3563.85
3537.18
3477.98
3356.5
3116.86
2654.64
1777.92
329.207
875.459
15000
15000
15000
15000
14999.9
14999.9
14999.8
14999.7
14999.6
14999.4
14999.2
14998.8
14998.3
14997.7
14996.8
14995.6
14994
14992
14989.4
14986
14981.7
14976.2
14969.3
14960.8
14950.2
14937.1
14921.2
14901.9
14878.6
14850.7
14817.6
14778.4
14732.4
14678.6
14616.3
14544.5
14462.2
14368.4
14262.3
14142.9
14009.3
13860.7
13696.4
13515.7
13318.3
13103.7
12871.8
12622.6
12356.4
12073.4
11774.4
11460.3
11131.9
10790.7
10437.9
10075.3
9704.59
9327.63
8946.42
8563
8179.46
7797.9
7420.38
7048.92
6685.42
6331.71
5989.46
5660.17
5345.19
5045.67
4762.56
4496.61
4248.38
4018.23
3806.32
3612.65
3437.03
3279.15
3138.54
3014.65
2906.79
2814.24
2736.2
2671.83
2620.27
2580.65
2552.11
2533.81
2524.94
2524.7
2532.37
2547.25
2568.71
2596.14
2629.02
2666.84
2709.17
2755.6
2805.76
2859.33
2916
2975.5
3037.57
3101.96
3168.43
3236.74
3306.67
3377.96
3450.37
3523.63
3597.49
3671.65
3745.82
3819.7
3892.96
3965.3
4036.37
4105.85
4173.42
4238.75
4301.53
4361.48
4418.3
4471.75
4521.59
4567.62
4609.66
4647.57
4681.24
4710.59
4735.56
4756.14
4772.34
4784.19
4791.76
4795.12
4794.38
4789.63
4781.03
4768.68
4752.75
4733.38
4710.73
4684.95
4656.21
4624.67
4590.5
4553.9
4515.05
4474.14
4431.39
4387.02
4341.27
4294.39
4246.66
4198.35
4149.76
4101.2
4052.97
4005.41
3958.83
3913.54
3869.85
3828.05
3788.43
3751.22
3716.66
3684.94
3656.21
3630.59
3608.16
3588.95
3572.96
3560.13
3550.36
3543.51
3539.35
3537.6
3537.87
3539.57
3541.81
3543.11
3540.91
3530.63
3503.87
3444.99
3324.71
3088.19
2632.53
1763.52
329.798
870.62
15000
15000
15000
15000
14999.9
14999.9
14999.8
14999.7
14999.6
14999.4
14999.2
14998.8
14998.3
14997.7
14996.8
14995.6
14994.1
14992
14989.4
14986
14981.7
14976.3
14969.4
14960.9
14950.3
14937.4
14921.5
14902.2
14879
14851.2
14818.2
14779.1
14733.2
14679.6
14617.5
14545.9
14463.8
14370.3
14264.5
14145.4
14012.1
13863.9
13700
13519.8
13322.8
13108.7
12877.2
12628.5
12362.7
12080.1
11781.6
11467.7
11139.7
10798.7
10446.2
10083.7
9712.99
9335.95
8954.54
8570.82
8186.84
7804.71
7426.49
7054.18
6689.7
6334.87
5991.36
5660.69
5344.2
5043.05
4758.21
4490.44
4240.3
4008.16
3794.2
3598.42
3420.67
3260.63
3117.86
2991.79
2881.77
2787.08
2706.92
2640.47
2586.86
2545.24
2514.75
2494.54
2483.81
2481.78
2487.7
2500.89
2520.71
2546.56
2577.9
2614.25
2655.15
2700.21
2749.06
2801.38
2856.86
2915.23
2976.25
3039.66
3105.23
3172.74
3241.95
3312.63
3384.53
3457.41
3530.99
3605
3679.16
3753.14
3826.65
3899.36
3970.94
4041.06
4109.38
4175.59
4239.35
4300.37
4358.35
4413.03
4464.16
4511.51
4554.91
4594.19
4629.22
4659.91
4686.19
4708.03
4725.42
4738.39
4747
4751.31
4751.41
4747.42
4739.47
4727.69
4712.22
4693.22
4670.86
4645.3
4616.71
4585.28
4551.18
4514.61
4475.77
4434.87
4392.14
4347.79
4302.09
4255.29
4207.67
4159.5
4111.1
4062.76
4014.8
3967.53
3921.27
3876.34
3833.02
3791.62
3752.39
3715.58
3681.4
3650.05
3621.66
3596.36
3574.21
3555.23
3539.43
3526.73
3517.03
3510.18
3505.96
3504.09
3504.17
3505.62
3507.55
3508.51
3505.98
3495.43
3468.6
3410.07
3291.06
3057.59
2608.45
1754.7
330.068
870.762
15000
15000
15000
15000
14999.9
14999.9
14999.8
14999.7
14999.6
14999.4
14999.2
14998.8
14998.3
14997.7
14996.8
14995.6
14994.1
14992.1
14989.4
14986.1
14981.8
14976.4
14969.5
14961
14950.5
14937.6
14921.7
14902.5
14879.4
14851.7
14818.7
14779.8
14734
14680.6
14618.7
14547.3
14465.4
14372.2
14266.7
14147.9
14015
13867.2
13703.6
13523.9
13327.3
13113.6
12882.6
12634.4
12369
12087
11788.8
11475.4
11147.7
10807
10454.6
10092.3
9721.64
9344.56
8962.99
8578.99
8194.61
7811.95
7433.05
7059.93
6694.5
6338.57
5993.83
5661.79
5343.81
5041.05
4754.47
4484.86
4232.8
3998.65
3782.62
3584.71
3404.79
3242.54
3097.54
2969.24
2856.99
2760.08
2677.72
2609.09
2553.35
2509.63
2477.09
2454.88
2442.19
2438.26
2442.33
2453.72
2471.8
2495.96
2525.66
2560.43
2599.8
2643.39
2690.82
2741.79
2795.98
2853.14
2913
2975.34
3039.93
3106.54
3174.95
3244.93
3316.25
3388.65
3461.89
3535.68
3609.75
3683.78
3757.48
3830.51
3902.55
3973.26
4042.31
4109.36
4174.08
4236.17
4295.31
4351.22
4403.65
4452.36
4497.15
4537.83
4574.26
4606.34
4633.98
4657.13
4675.77
4689.93
4699.63
4704.96
4705.98
4702.81
4695.57
4684.4
4669.46
4650.89
4628.88
4603.58
4575.2
4543.91
4509.91
4473.42
4434.63
4393.77
4351.07
4306.78
4261.15
4214.45
4166.95
4118.95
4070.74
4022.64
3974.95
3928
3882.08
3837.51
3794.58
3753.57
3714.74
3678.33
3644.55
3613.57
3585.53
3560.54
3538.66
3519.91
3504.28
3491.7
3482.05
3475.19
3470.89
3468.87
3468.74
3469.91
3471.51
3472.11
3469.21
3458.38
3431.46
3373.29
3255.55
3025.08
2582.02
1737.85
329.721
862.443
15000
15000
15000
15000
14999.9
14999.9
14999.8
14999.8
14999.6
14999.4
14999.2
14998.8
14998.3
14997.7
14996.8
14995.6
14994.1
14992.1
14989.5
14986.1
14981.8
14976.4
14969.6
14961.2
14950.7
14937.8
14922
14902.8
14879.8
14852.2
14819.3
14780.5
14734.9
14681.6
14619.9
14548.7
14467.1
14374.1
14268.9
14150.4
14017.9
13870.4
13707.3
13527.9
13331.8
13118.6
12888.1
12640.3
12375.4
12093.8
11796.1
11483.1
11155.8
10815.4
10463.3
10101.1
9730.53
9353.43
8971.74
8587.5
8202.76
7819.6
7440.07
7066.17
6699.83
6342.84
5996.9
5663.53
5344.08
5039.72
4751.43
4480
4226.01
3989.86
3771.74
3571.69
3389.57
3225.08
3077.82
2947.23
2832.7
2733.51
2648.89
2578.02
2520.06
2474.16
2439.48
2415.17
2400.44
2394.5
2396.63
2406.13
2422.35
2444.72
2472.69
2505.77
2543.52
2585.54
2631.47
2680.98
2733.79
2789.63
2848.25
2909.43
2972.94
3038.56
3106.08
3175.28
3245.92
3317.77
3390.58
3464.08
3537.98
3611.99
3685.81
3759.1
3831.55
3902.8
3972.53
4040.39
4106.04
4169.17
4229.45
4286.59
4340.33
4390.4
4436.59
4478.7
4516.57
4550.07
4579.11
4603.62
4623.57
4638.97
4649.83
4656.22
4658.23
4655.94
4649.48
4638.99
4624.62
4606.54
4584.93
4559.96
4531.82
4500.73
4466.88
4430.49
4391.78
4350.99
4308.37
4264.15
4218.62
4172.03
4124.68
4076.86
4028.87
3981.02
3933.62
3886.98
3841.42
3797.22
3754.68
3714.07
3675.65
3639.64
3606.25
3575.64
3547.95
3523.27
3501.65
3483.12
3467.65
3455.17
3445.56
3438.67
3434.27
3432.07
3431.69
3432.55
3433.8
3434
3430.72
3419.58
3392.56
3334.74
3218.19
2990.28
2551.23
1708.93
328.98
855.197
15000
15000
15000
15000
14999.9
14999.9
14999.8
14999.8
14999.6
14999.4
14999.2
14998.8
14998.4
14997.7
14996.8
14995.7
14994.1
14992.1
14989.5
14986.2
14981.9
14976.5
14969.7
14961.3
14950.8
14938
14922.2
14903.2
14880.2
14852.7
14819.9
14781.2
14735.7
14682.6
14621.1
14550.1
14468.7
14376
14271.1
14153
14020.7
13873.7
13711
13532
13336.4
13123.6
12893.6
12646.3
12381.9
12100.8
11803.5
11490.9
11164
10823.9
10472.1
10110.1
9739.64
9362.56
8980.78
8596.34
8211.27
7827.66
7447.54
7072.91
6705.69
6347.7
6000.6
5665.93
5345.05
5039.13
4749.16
4475.94
4220.05
3981.9
3761.71
3559.51
3375.18
3208.44
3058.89
2926
2809.15
2707.63
2620.69
2547.52
2487.29
2439.14
2402.25
2375.77
2358.9
2350.88
2350.97
2358.48
2372.77
2393.26
2419.39
2450.7
2486.72
2527.08
2571.4
2619.37
2670.7
2725.13
2782.42
2842.34
2904.68
2969.22
3035.76
3104.08
3173.97
3245.18
3317.47
3390.59
3464.25
3538.16
3612.02
3685.5
3758.28
3830.02
3900.37
3968.99
4035.53
4099.67
4161.07
4219.42
4274.45
4325.88
4373.48
4417.03
4456.35
4491.31
4521.78
4547.69
4569
4585.68
4597.76
4605.28
4608.32
4606.97
4601.35
4591.6
4577.87
4560.33
4539.17
4514.57
4486.74
4455.88
4422.22
4385.98
4347.4
4306.72
4264.2
4220.09
4174.67
4128.23
4081.04
4033.42
3985.66
3938.08
3890.97
3844.67
3799.45
3755.63
3713.49
3673.29
3635.27
3599.67
3566.66
3536.42
3509.06
3484.68
3463.32
3445
3429.67
3417.27
3407.68
3400.73
3396.2
3393.8
3393.15
3393.68
3394.53
3394.31
3390.62
3379.16
3352.02
3294.52
3179.1
2953.66
2519.21
1690.01
328.61
840.775
15000
15000
15000
15000
14999.9
14999.9
14999.8
14999.8
14999.6
14999.4
14999.2
14998.8
14998.4
14997.7
14996.8
14995.7
14994.1
14992.1
14989.5
14986.2
14982
14976.6
14969.8
14961.4
14951
14938.2
14922.5
14903.5
14880.6
14853.1
14820.5
14781.9
14736.6
14683.7
14622.3
14551.5
14470.4
14378
14273.3
14155.5
14023.7
13877
13714.7
13536.2
13341
13128.7
12899.2
12652.4
12388.4
12107.8
11811
11498.8
11172.3
10832.6
10481.1
10119.3
9748.97
9371.93
8990.11
8605.5
8220.15
7836.12
7455.46
7080.15
6712.11
6353.15
6004.94
5669.03
5346.76
5039.33
4747.72
4472.74
4214.98
3974.87
3752.63
3548.3
3361.78
3192.79
3040.95
2905.74
2786.55
2682.68
2593.39
2517.87
2455.31
2404.86
2365.69
2336.97
2317.91
2307.73
2305.7
2311.14
2323.41
2341.93
2366.15
2395.59
2429.8
2468.4
2511.03
2557.36
2607.13
2660.06
2715.92
2774.49
2835.57
2898.95
2964.42
3031.77
3100.8
3171.28
3242.97
3315.62
3388.95
3462.67
3536.49
3610.09
3683.14
3755.29
3826.2
3895.52
3962.9
4027.99
4090.47
4150.01
4206.3
4259.08
4308.07
4353.06
4393.86
4430.28
4462.21
4489.56
4512.25
4530.26
4543.59
4552.29
4556.42
4556.06
4551.34
4542.39
4529.36
4512.42
4491.77
4467.6
4440.12
4409.55
4376.12
4340.07
4301.65
4261.11
4218.72
4174.75
4129.48
4083.2
4036.2
3988.79
3941.28
3893.97
3847.18
3801.2
3756.35
3712.91
3671.17
3631.37
3593.76
3558.55
3525.93
3496.04
3469.01
3444.92
3423.8
3405.66
3390.46
3378.12
3368.52
3361.49
3356.81
3354.19
3353.23
3353.4
3353.83
3353.17
3349.04
3337.22
3309.95
3252.79
3138.66
2916.62
2491.05
1682.97
328.703
833.96
15000
15000
15000
15000
14999.9
14999.9
14999.8
14999.8
14999.6
14999.4
14999.2
14998.8
14998.4
14997.7
14996.8
14995.7
14994.2
14992.2
14989.6
14986.3
14982
14976.7
14970
14961.6
14951.2
14938.4
14922.8
14903.8
14881
14853.6
14821.1
14782.6
14737.5
14684.7
14623.5
14553
14472.1
14379.9
14275.6
14158.1
14026.6
13880.3
13718.4
13540.4
13345.7
13133.9
12904.8
12658.5
12395.1
12114.9
11818.6
11506.9
11180.8
10841.4
10490.2
10128.7
9758.52
9381.56
8999.72
8614.98
8229.38
7844.98
7463.82
7087.88
6719.07
6359.2
6009.94
5672.83
5349.24
5040.34
4747.15
4470.46
4210.88
3968.85
3744.59
3538.17
3349.47
3178.26
3024.14
2886.61
2765.07
2658.85
2567.18
2489.3
2424.38
2371.59
2330.09
2299.08
2277.76
2265.35
2261.14
2264.45
2274.63
2291.1
2313.32
2340.81
2373.14
2409.9
2450.75
2495.36
2543.47
2594.82
2649.17
2706.31
2766.03
2828.15
2892.46
2958.76
3026.85
3096.5
3167.5
3239.58
3312.48
3385.94
3459.63
3533.26
3606.48
3678.97
3750.36
3820.31
3888.47
3954.47
4017.97
4078.65
4136.18
4190.27
4240.65
4287.07
4329.33
4367.23
4400.63
4429.42
4453.53
4472.9
4487.54
4497.46
4502.72
4503.41
4499.63
4491.52
4479.24