<?xml version="1.0"?>
<VTKFile type="PolyData" version="0.1" byte_order="LittleEndian">
  <PolyData>
    <Piece NumberOfPoints="50000" NumberOfVerts="50000" NumberOfLines="0" NumberOfStrips="0" NumberOfPolys="0">
      <Points>
        <DataArray type="Float32" NumberOfComponents="3" format="ascii">
0.136701 0.00348494 0
-0.128564 0.00152439 0
0.13217 -0.000335801 0
0.138121 -0.000153033 0
-0.111583 0.00268915 0
-0.0935842 0.00129658 0
0.0454576 -0.00817302 0
-0.115675 0.000528916 0
0.040273 -0.00626332 0
-0.00844167 0.00358197 0
0.103544 -0.00371836 0
0.131998 0.00323522 0
-0.0749442 0.00295436 0
-0.0527262 -0.00768077 0
-0.140394 0.00131999 0
0.106668 0.0047064 0
-0.0190427 -0.000156751 0
0.136884 0.00112174 0
0.0521322 0.00104605 0
-0.128643 0.00181326 0
-0.134944 0.00241957 0
0.118464 0.00284503 0
-0.133002 0.00142045 0
0.133682 0.000565121 0
0.0850434 -0.00375021 0
0.0992073 0.00494203 0
-0.131592 -0.00199952 0
0.137267 -0.000582456 0
-0.0938413 0.00852203 0
-0.139003 0.00363091 0
-0.104236 0.00466409 0
-0.096567 -0.0050244 0
0.13603 0.000848529 0
0.13671 0.000204664 0
0.0263837 0.00230437 0
0.139101 1.10691e-05 0
0.0424965 0.00107049 0
-0.137995 0.00140167 0
-0.128608 -0.0012189 0
-0.143092 -0.000293323 0
0.0999869 0.00502291 0
0.105841 0.00265206 0
-0.131801 -0.000259058 0
0.135172 0.000816518 0
0.13977 0.0010137 0
-0.135573 0.00351809 0
0.133263 0.00227023 0
0.0682271 -0.00450241 0
0.131411 0.000686101 0
0.134571 0.000634245 0
0.0563018 0.007847 0
-0.133056 0.000193589 0
-0.0920191 0.00377679 0
0.132889 0.00157787 0
-0.130881 0.00139567 0
-0.139405 0.00144964 0
0.136797 0.000149117 0
0.0552379 0.0045097 0
0.102064 0.00314148 0
0.141171 -0.00107971 0
0.115041 0.00219632 0
0.138309 0.0014999 0
0.0306543 -0.0102729 0
0.141042 -1.92578e-05 0
-0.0445018 0.00630913 0
-0.130559 0.00105901 0
0.134091 0.000273619 0
0.137576 0.000358737 0
0.142219 0.00195487 0
0.0986088 0.000910301 0
-0.131914 0.00169695 0
0.134059 0.00187392 0
0.0737081 0.00104063 0
0.0747328 0.00290717 0
0.0638944 0.00233025 0
-0.134086 -0.000279359 0
0.116639 0.00481172 0
-0.127025 0.00206495 0
0.103065 0.00291296 0
-0.139079 0.00114925 0
-0.069211 -0.0107424 0
-0.136356 0.00208318 0
0.126819 0.00234676 0
-0.132657 0.000806357 0
0.140998 -0.00100329 0
-0.132779 0.00172674 0
0.141179 -0.000975187 0
-0.0592243 -0.00227305 0
-0.0571926 0.00834028 0
-0.134214 -0.00183949 0
0.132937 0.00288167 0
-0.131239 0.000374948 0
0.133264 -9.42485e-06 0
-0.089778 0.00719589 0
-0.0129443 -0.0066969 0
-0.117763 0.00238477 0
0.133353 0.00357952 0
-0.135118 0.00170193 0
-0.142601 0.00307391 0
-0.141182 0.000260403 0
-0.118094 -0.00193948 0
-0.131765 -0.00132762 0
0.141981 0.00039802 0
-0.0562568 -0.00631095 0
0.142983 0.000439935 0
0.116724 0.00487055 0
0.0867137 0.00291798 0
0.00726611 0.00322582 0
0.131237 0.00213431 0
-0.133568 -0.000986781 0
-0.0999779 0.00721472 0
-0.135319 0.00166845 0
-0.115111 0.00415473 0
92.3379 133.571 0
0.0896534 0.00309509 0
-0.133276 0.00180863 0
-0.13826 0.00208728 0
2.35776 3.22515 0
-0.134466 0.00114527 0
-0.00614345 -0.00225589 0
0.137321 0.000153369 0
-0.129784 -0.000704511 0
0.0927963 -0.000532845 0
-0.123648 0.00310067 0
0.13465 0.000391118 0
0.130949 0.000307331 0
0.0430776 0.00860812 0
0.138088 0.00210672 0
-0.119669 -0.00170771 0
0.104335 0.000311561 0
0.139149 -0.000434995 0
0.137956 0.000486697 0
-0.141874 0.000853632 0
-0.11824 0.0019647 0
0.141454 3.07133e-05 0
0.134482 0.000289094 0
0.129498 -0.000319743 0
-0.0207751 0.00166197 0
0.108053 -0.00412621 0
0.105225 -0.003372 0
0.108009 -0.00420509 0
0.128129 0.00385183 0
0.13894 -0.000503739 0
-0.0313451 -0.00405915 0
-0.137669 0.0028513 0
0.0918789 -0.00690659 0
-0.0875771 0.00731939 0
-0.135741 0.0012644 0
-0.0963023 -0.00603334 0
-0.136209 0.00183031 0
0.104636 0.00310253 0
0.133604 0.00140727 0
-0.0407715 -0.00334187 0
0.108539 -0.00283772 0
0.107892 0.00343073 0
0.132595 0.00196322 0
0.0906022 -0.00263227 0
-0.133564 0.00152211 0
-0.0570981 -0.00139693 0
0.138574 0.000509882 0
0.0925946 6.68624e-05 0
-0.12127 -0.000431969 0
-0.131224 0.00143286 0
-0.136478 0.00145199 0
-0.0347371 0.00395323 0
0.106594 -0.00150398 0
0.120465 -0.00125858 0
0.121907 0.00185589 0
0.102524 0.00332798 0
-0.0555506 0.000797691 0
0.142632 -0.00101419 0
-0.13077 0.00163199 0
-0.0305059 -0.00137259 0
0.138061 0.00211431 0
-0.0243571 -0.000549599 0
-0.105082 0.00587144 0
-0.131129 0.00142091 0
-0.0791202 -0.00309988 0
-0.133037 -0.00021462 0
-0.133671 -0.00165831 0
0.13223 0.000598552 0
-0.135129 0.00273322 0
-0.133049 0.00239773 0
0.136632 0.00244546 0
0.133115 0.000317018 0
0.102629 -0.00518937 0
0.142936 -0.000521113 0
0.141283 0.000772743 0
0.137184 -0.000612908 0
0.0155979 0.0104316 0
0.139483 -0.000602807 0
0.112784 -0.00245196 0
-0.0893769 -0.00554665 0
0.12545 0.00277682 0
-0.123332 0.00273135 0
0.132261 0.00122097 0
-0.1097 0.00453658 0
-0.117135 0.00237262 0
-0.131524 0.00188263 0
0.134027 0.00231323 0
-0.0873888 0.00695349 0
0.140851 0.00153576 0
0.122232 -0.00122405 0
-0.0270982 -0.00177654 0
0.14283 -0.00104853 0
-0.129929 -0.00214853 0
0.0186594 0.0163898 0
0.0568575 -0.00162648 0
-0.117144 0.00419043 0
-0.0822159 -0.00281799 0
0.130943 0.000825857 0
-0.0570122 -0.00642648 0
0.123204 -0.0006174 0
-0.113194 0.00429697 0
-0.0771696 -0.00470752 0
-0.136409 0.00261412 0
-0.134585 0.00316274 0
0.135722 0.000533086 0
-0.138048 0.000106006 0
-0.0156915 0.00763195 0
-0.10599 0.00453551 0
-0.137934 0.00179261 0
-0.127712 -0.00156443 0
0.141646 -0.000366687 0
0.0500902 0.00886395 0
-0.131228 0.00159362 0
0.142213 0.00100171 0
0.136726 0.000348949 0
-0.11627 0.0038729 0
-0.137661 0.000350125 0
-0.135501 -0.000749127 0
0.133143 0.00207738 0
0.0690743 0.00851668 0
-0.0203279 0.00562542 0
-0.140061 0.00205955 0
-0.120332 0.00256742 0
0.104201 -0.00527932 0
-0.105689 -0.000927725 0
-0.133721 0.00169648 0
0.0828716 -0.000376478 0
0.139644 0.000606289 0
-0.123025 -0.00175542 0
-0.135409 0.0017 0
-0.0775993 -0.00411918 0
0.0683571 0.00290444 0
0.121846 0.00201785 0
-0.127502 0.00295133 0
0.136815 0.000348162 0
0.140533 0.00151253 0
0.0806173 0.00482294 0
0.0841935 0.00207807 0
-0.127102 0.002283 0
0.131985 -0.000375982 0
-0.0596286 -0.00256573 0
-0.122845 0.00332256 0
0.132305 0.000525426 0
-0.119059 0.00325534 0
0.116747 0.0036311 0
0.0507292 0.00844681 0
0.0734744 0.000722891 0
0.140562 0.000931864 0
-0.127058 0.00222474 0
0.0260374 -0.00216606 0
0.0133064 -0.00408108 0
-0.0903996 0.00173588 0
-0.13376 0.000913224 0
-0.131537 0.0015551 0
-0.130857 7.52953e-05 0
0.135611 0.00028093 0
0.134403 0.000346591 0
0.138492 0.000299191 0
-0.135034 -0.000425615 0
0.0888873 0.00164214 0
0.00757551 0.00464027 0
-0.140814 0.00225989 0
-0.136842 0.00133909 0
0.131685 0.000490497 0
-0.1308 0.00158442 0
0.130395 0.002804 0
-0.132878 6.22847e-05 0
-0.128524 0.000519953 0
-0.0588557 -0.00708887 0
-0.134914 0.00139165 0
0.128468 -0.000123938 0
-0.114263 0.00419206 0
-0.128796 -0.0005081 0
-0.050642 0.00726327 0
-0.134613 0.00165689 0
-0.136569 0.00184602 0
0.115929 -0.000430621 0
-0.0475011 0.00287054 0
0.135395 0.000306597 0
0.138336 -0.000355489 0
0.088021 0.00527445 0
0.140274 0.00173514 0
0.133588 0.00273155 0
0.139689 0.0020387 0
-0.0917382 0.00840466 0
-0.12635 0.00125274 0
-0.140266 0.000884745 0
0.143366 0.000927165 0
-0.018424 0.00307435 0
0.134886 2.81368e-05 0
0.131814 0.0017435 0
0.138835 0.00036823 0
0.0241346 0.00468799 0
-0.0701483 0.00896759 0
0.116767 0.00241696 0
-0.0156523 0.000724558 0
-0.0655187 0.0037273 0
-0.110065 0.00446455 0
0.135535 0.00289111 0
-0.0973062 0.00546865 0
0.125087 -0.00119566 0
0.10319 -0.000986993 0
-0.140015 0.00267652 0
0.109781 -0.00433107 0
0.142028 -0.00112529 0
0.126954 -0.000402849 0
0.135946 0.00313676 0
-0.136584 0.0023723 0
-0.029376 0.00563883 0
0.138307 0.00131378 0
0.137822 0.000304243 0
0.0634869 0.00889944 0
-0.13047 0.000403298 0
-0.127689 0.00227151 0
0.141802 0.000788309 0
-0.130362 -0.000438265 0
0.137073 0.00147456 0
0.1379 -0.000196217 0
0.06592 -0.00723443 0
0.131849 0.00179606 0
-0.134087 0.00168402 0
-0.11438 0.000378237 0
-0.0766213 -0.000263235 0
0.0113748 -0.00198118 0
0.0167722 -0.00913855 0
-0.122947 0.00171014 0
0.0613272 -0.00809583 0
-0.0136382 0.0140474 0
-0.138587 0.00261154 0
-0.0985228 0.00516515 0
-0.135186 0.00206689 0
-0.0553778 -0.00395436 0
0.137988 0.00295703 0
-0.0955921 0.00572761 0
-0.137027 0.000539441 0
-18.8653 78.0347 0
0.137582 -0.00113256 0
0.137072 0.000252844 0
-0.111053 0.00534 0
0.133499 0.00163594 0
0.126496 0.000280188 0
-174.455 -311.986 0
0.0422046 0.00550618 0
-0.13556 0.00181749 0
-0.112219 -0.000240218 0
0.135949 0.00181278 0
1.2725 -2.6194 0
0.128598 0.00229261 0
-0.132767 -0.00147618 0
-0.084207 0.000680105 0
-0.134836 -0.000550639 0
-0.13734 0.00283521 0
0.135015 0.000281989 0
-0.139137 0.00010108 0
-0.12053 0.00366922 0
0.105739 0.00483006 0
-0.131176 0.000600493 0
-0.10901 0.00534578 0
-0.121175 0.00334782 0
0.136284 0.00203931 0
0.122944 -0.00172701 0
-0.0802633 0.00697908 0
0.140335 -6.74067e-05 0
-0.135695 -0.00134244 0
-0.125654 -0.000627064 0
-0.1371 0.000995679 0
0.0123479 -0.009718 0
-0.132064 -0.00124096 0
0.134831 0.00207598 0
-0.134267 0.00182358 0
-0.133796 0.001241 0
-0.0323486 0.00566715 0
0.0880053 0.00520853 0
-0.04295 0.0127718 0
0.0292548 0.00751461 0
-0.135678 0.0018924 0
-0.0239345 0.00182267 0
-0.136022 0.000242958 0
-0.136623 0.00242459 0
0.131618 -0.00132009 0
0.115605 0.00378174 0
-0.127527 0.002749 0
0.122575 0.00229282 0
0.121362 0.00108135 0
-0.130257 0.00161612 0
-0.0714118 -0.00177291 0
0.095885 -0.00515849 0
-0.130629 0.000851489 0
0.116232 -0.00236795 0
0.053587 -0.000992662 0
-0.13386 0.000254153 0
0.126314 0.000422994 0
0.132858 -0.000151049 0
0.135205 -0.000940658 0
0.137645 0.000116843 0
0.139854 0.000651371 0
0.132897 0.00298088 0
-0.134997 0.00151549 0
0.0976728 0.00386801 0
-0.111088 -0.00109926 0
0.0640656 0.00955124 0
-0.127046 0.00150541 0
-0.0448231 -0.00126189 0
-0.104983 0.00455141 0
0.0391077 -0.00407788 0
-0.137771 0.00190037 0
0.13285 0.000280528 0
[...]
      <PointData Scalars="T">
        <DataArray type="Float32" Name="T" format="ascii" NumberOfComponents="1">
310.067
344.338
311.698
311.698
353.947
360.339
311.698
371.087
311.698
353.947
311.698
310.067
353.947
356.096
361.422
310.067
356.096
300.653
300.59
343.762
353.947
310.067
351.223
300.702
311.698
310.067
356.096
311.698
353.947
353.947
353.947
356.096
300.492
301.231
310.067
302.366
300.664
352.984
356.096
356.096
310.067
310.067
356.096
300.51
300.469
353.947
310.067
311.698
300.627
300.681
310.067
377.477
353.947
301.48
354.54
350.876
301.533
310.067
310.067
311.698
310.067
300.964
311.698
311.698
353.947
371.32
300.923
300.789
310.067
300.472
338.02
302.864
300.59
310.067
310.067
356.096
310.067
353.947
310.067
365.02
356.096
353.947
310.067
361.998
311.698
338.303
311.698
356.096
353.947
356.096
310.067
371.879
311.698
353.947
356.096
353.947
310.067
337.879
353.947
377.942
356.096
356.096
300.755
356.096
300.73
310.067
310.067
310.067
310.067
356.096
353.947
338.536
353.947
310.067
310.067
343.133
353.947
310.067
365.02
356.096
301.47
356.096
311.698
353.947
300.755
300.836
310.067
310.067
356.096
300.821
311.698
300.683
366.494
353.947
302.264
300.887
311.698
338.536
311.698
311.698
311.698
310.067
311.698
356.096
353.947
311.698
353.947
360.574
356.096
344.919
310.067
300.781
356.096
311.698
310.067
310.067
311.698
344.338
356.096
300.676
302.04
356.096
351.019
350.569
353.947
311.698
311.698
302.837
310.067
360.958
311.698
339.527
356.096
310.067
356.096
353.947
351.223
356.096
356.096
356.096
300.711
353.947
353.947
310.067
300.821
311.698
311.698
300.53
311.698
310.067
311.698
311.698
356.096
310.067
353.947
300.649
353.947
353.947
347.745
310.067
353.947
301.162
311.698
356.096
311.698
356.096
310.067
311.698
353.947
356.096
300.504
356.096
311.698
353.947
356.096
353.947
353.947
300.677
378.656
353.947
353.947
342.574
356.096
311.698
310.067
340.556
300.465
300.794
353.947
373.478
356.096
310.067
310.067
353.947
353.947
353.947
311.698
356.096
338.02
311.698
300.708
356.096
337.879
356.096
310.067
310.067
353.947
300.794
301.068
310.067
310.067
353.947
311.698
356.096
353.947
300.675
353.947
310.067
310.067
300.566
300.468
353.947
311.698
311.698
338.691
368.612
342.286
379.91
300.887
300.794
300.855
356.096
302.037
310.067
353.947
361.878
300.676
340.817
310.067
380.654
370.288
356.096
354.54
311.698
353.947
356.096
353.947
338.782
345.543
311.698
353.947
300.836
311.698
310.067
302.544
310.067
310.067
353.947
361.042
370.492
300.472
353.947
302.31
302.592
300.785
310.067
353.947
310.067
359.843
353.947
353.947
310.067
353.947
311.698
311.698
353.947
311.698
311.698
311.698
310.067
353.947
353.947
300.705
300.836
310.067
370.754
353.947
300.524
356.096
300.924
311.698
311.698
302.762
338.115
371.879
356.096
311.698
311.698
337.97
311.698
353.947
353.947
353.947
353.947
356.096
310.067
353.947
371.405
353.947
311.698
301.006
353.947
301.949
300.887
356.096
310.067
343.762
356.096
302.769
311.698
310.067
356.096
363.634
356.096
353.947
300.887
378.656
353.947
310.067
368.706
353.947
353.947
310.067
311.698
353.947
311.698
356.096
356.096
371.485
311.698
356.096
310.067
344.35
361.712
353.947
310.067
353.947
310.067
347.899
344.35
379.275
353.947
311.698
310.067
353.947
310.067
300.665
339.934
356.096
311.698
366.494
311.698
311.698
378.756
300.731
311.698
311.698
301.701
300.659
310.067
345.301
310.067
356.096
310.067
346.648
356.096
353.947
311.698
348.113
300.887
353.947
310.067
338.303
300.682
300.734
310.067
311.698
338.115
351.019
301.533
353.947
310.067
350.569
310.067
372.166
356.096
353.947
353.947
302.386
300.653
353.947
311.698
360.016
375.728
356.096
353.947
356.096
310.067
311.698
356.096
300.847
356.096
379.687
311.698
311.698
356.096
353.947
360.659
356.096
300.48
356.096
300.547
353.947
356.096
300.734
310.067
356.096
356.096
353.947
353.947
310.067
360.658
311.698
300.887
310.067
353.947
353.947
347.745
300.697
310.067
365.712
356.096
356.096
350.876
300.646
310.067
300.779
300.457
353.947
310.067
310.067
300.477
341.587
310.067
311.698
373.478
302.04
341.186
353.947
353.947
356.096
375.728
356.096
356.096
356.096
311.698
311.698
311.698
310.067
311.698
310.067
310.067
356.096
310.067
348.03
311.698
310.067
353.947
310.067
353.947
365.02
353.947
365.712
310.067
311.698
310.067
301.105
301.934
311.698
353.947
310.067
310.067
362.244
310.067
361.847
338.303
356.096
311.698
301.64
353.947
353.947
356.096
377.477
356.096
310.067
310.067
300.705
310.067
356.096
353.947
310.067
353.947
300.499
310.067
356.096
337.879
311.698
353.947
302.342
310.067
356.096
310.067
356.096
301.322
375.334
353.947
300.665
311.698
356.096
356.096
365.825
344.338
353.947
310.067
311.698
301.231
300.468
310.067
356.096
364.365
371.175
356.096
339.035
302.713
311.698
353.947
310.067
379.382
300.469
310.067
300.566
351.655
310.067
356.096
371.32
310.067
311.698
356.096
310.067
339.035
311.698
311.698
310.067
300.708
356.096
356.096
353.947
373.893
310.067
356.096
311.698
377.35
356.096
310.067
300.683
356.096
356.096
353.947
353.947
301.701
311.698
353.947
370.288
356.096
310.067
311.698
339.527
353.947
311.698
311.698
310.067
310.067
351.223
356.096
356.096
356.096
356.096
310.067
353.947
310.067
301.162
356.096
353.947
300.676
311.698
356.096
347.899
311.698
356.096
356.096
341.587
302.264
356.096
357.313
310.067
353.947
349.351
311.698
310.067
339.934
310.067
311.698
360.536
310.067
300.785
345.543
353.947
311.698
300.734
300.676
310.067
302.913
371.175
370.347
353.947
353.947
310.067
339.738
356.096
300.485
302.713
353.947
357.313
353.947
300.923
310.067
310.067
310.067
353.947
300.755
311.698
366.006
353.947
301.162
300.96
310.067
310.067
300.847
353.947
310.067
301.784
311.698
338.115
310.067
353.947
311.698
302.306
311.698
310.067
311.698
353.947
300.697
366.763
310.067
340.556
353.947
353.947
311.698
356.096
310.067
338.288
300.683
310.067
356.096
311.698
365.825
378.47
371.621
357.313
353.947
353.947
300.81
311.698
311.698
300.695
311.698
364.365
310.067
339.158
371.064
311.698
311.698
342.97
300.48
353.947
310.067
353.947
353.947
353.947
356.096
381.412
300.492
353.947
310.067
353.947
356.096
353.947
381.851
356.096
300.675
310.067
311.698
353.947
356.096
353.947
360.536
356.096
353.947
356.096
310.067
339.934
356.096
311.698
311.698
300.785
359.714
353.947
356.096
310.067
379.644
300.648
347.567
356.096
378.959
310.067
300.683
310.067
300.646
301.784
353.947
353.947
311.698
353.947
310.067
361.878
310.067
351.019
356.096
301.784
338.303
300.652
353.947
353.947
311.698
300.665
379.687
310.067
311.698
300.658
310.067
353.947
356.096
371.175
310.067
353.947
300.653
310.067
311.698
311.698
372.933
353.947
300.646
353.947
353.947
311.698
300.683
302.544
301.105
353.947
356.096
310.067
353.947
300.781
302.804
338.782
353.947
301.31
366.494
311.698
300.789
339.035
337.97
311.698
300.485
353.947
356.096
356.096
310.067
300.652
363.634
353.947
350.603
363.634
356.096
302.264
353.947
301.375
361.422
301.934
300.708
361.419
301.273
358.016
310.067
300.96
353.947
356.096
301.31
311.698
310.067
310.067
310.067
310.067
338.303
310.067
311.698
371.064
311.698
310.067
353.947
300.685
311.698
310.067
353.947
353.947
356.096
311.698
356.096
301.006
356.096
351.655
353.947
310.067
356.096
370.109
356.096
311.698
372.166
353.947
311.698
300.899
356.096
356.096
311.698
353.947
311.698
311.698
377.477
310.067
356.096
300.725
311.698
310.067
311.698
310.067
310.067
353.947
300.781
311.698
301.189
353.947
300.887
356.096
353.947
356.096
311.698
310.067
345.301
356.096
353.947
311.698
353.947
353.947
300.708
300.794
310.067
302.762
340.827
357.313
311.698
353.947
310.067
353.947
356.096
300.647
356.096
311.698
353.947
356.096
353.947
353.947
353.947
362.244
356.096
353.947
353.947
310.067
366.763
311.698
311.698
311.698
311.698
310.067
353.947
300.676
339.738
310.067
338.288
302.831
300.713
356.096
310.067
353.947
311.698
310.067
311.698
377.35
301.189
353.947
300.477
356.096
356.096
310.067
356.096
344.35
353.947
356.096
311.698
310.067
310.067
310.067
356.096
311.698
377.126
311.698
300.554
310.067
310.067
301.657
311.698
301.006
356.096
310.067
301.886
381.412
353.947
311.698
353.947
300.465
353.947
356.096
342.018
360.658
356.096
339.807
300.941
356.096
310.067
360.958
311.698
353.947
310.067
353.947
353.947
302.783
310.067
353.947
311.698
310.067
300.691
300.504
356.096
353.947
369.963
371.032
311.698
353.947
300.59
353.947
353.947
311.698
311.698
353.947
310.067
311.698
300.681
311.698
343.762
300.711
310.067
353.947
353.947
353.947
356.096
353.947
311.698
338.782
311.698
356.096
300.675
311.698
310.067
339.527
356.096
356.096
353.947
311.698
310.067
356.096
311.698
300.664
356.096
356.096
302.205
343.133
300.655
311.698
310.067
356.096
353.947
353.947
353.947
310.067
371.32
302.451
360.574
353.947
300.789
310.067
310.067
311.698
302.75
370.288
367.013
356.096
340.817
300.785
301.013
310.067
310.067
310.067
310.067
356.096
353.947
353.947
353.947
370.673
339.934
341.587
300.59
311.698
311.698
300.771
301.64
340.817
311.698
348.113
300.499
356.096
353.947
310.067
354.54
366.006
300.855
371.58
311.698
311.698
311.698
302.118
310.067
302.864
311.698
310.067
384.369
300.53
360.574
310.067
310.067
300.691
377.925
311.698
380.654
310.067
310.067
310.067
310.067
353.947
311.698
353.947
310.067
300.708
311.698
370.88
368.671
366.494
311.698
311.698
356.096
310.067
350.603
301.113
301.006
356.096
353.947
369.544
311.698
310.067
348.113
300.836
353.947
301.113
353.947
338.536
368.612
353.947
311.698
311.698
382.832
353.947
353.947
353.947
311.698
356.096
310.067
353.947
310.067
301.48
353.947
346.648
310.067
353.947
300.695
311.698
311.698
353.947
300.504
311.698
356.096
353.947
311.698
353.947
300.789
353.947
337.879
300.81
356.096
356.096
300.697
300.706
302.783
311.698
310.067
380.043
300.818
310.067
353.947
353.947
311.698
341.186
310.067
300.477
362.271
344.338
310.067
371.566
362.3
300.651
311.698
370.918
361.422
301.375
348.113
366.494
356.096
377.942
353.947
311.698
311.698
353.947
345.543
311.698
356.096
311.698
310.067
310.067
353.947
353.947
311.698
361.998
310.067
353.947
310.067
311.698
360.536
301.64
302.205
356.096
340.556
356.096
356.096
338.782
353.947
346.161
353.947
310.067
300.675
311.698
353.947
311.698
353.947
342.97
300.676
339.527
337.879
302.769
342.97
379.687
311.698
356.096
356.096
310.067
347.745
310.067
300.756
301.701
311.698
353.947
301.381
300.658
341.44
337.97
310.067
353.947
353.947
300.547
301.231
300.734
356.096
300.836
353.947
300.646
311.698
366.973
339.807
340.817
311.698
300.677
353.947
353.947
353.947
356.096
300.756
356.096
311.698
356.096
356.096
300.702
310.067
311.698
356.096
310.067
311.698
310.067
362.271
301.231
368.612
369.963
353.947
345.301
364.22
356.096
356.096
310.067
302.213
356.096
353.947
353.947
311.698
353.947
353.947
338.115
356.096
356.096
311.698
311.698
302.831
338.288
310.067
310.067
300.81
356.096
311.698
300.663
310.067
300.485
310.067
353.947
365.825
370.668
353.947
359.714
300.96
356.096
356.096
310.067
353.947
356.096
353.947
360.659
351.655
337.879
371.488
311.698
356.096
356.096
353.947
356.096
344.35
311.698
356.096
353.947
311.698
311.698
311.698
356.096
356.096
353.947
310.067
339.934
377.925
300.663
353.947
337.97
353.947
310.067
353.947
310.067
310.067
311.698
356.096
311.698
300.655
356.096
372.1
311.698
310.067
356.096
353.947
353.947
302.366
353.947
377.942
353.947
310.067
310.067
311.698
310.067
356.096
353.947
339.807
311.698
310.067
353.947
310.067
310.067
370.288
356.096
356.096
310.067
310.067
310.067
351.019
310.067
370.668
310.067
353.947
344.919
361.712
301.707
300.683
311.698
311.698
379.91
311.698
311.698
361.847
342.97
310.067
310.067
300.668
353.947
311.698
339.527
301.863
302.842
311.698
300.632
371.175
340.827
371.405
310.067
311.698
311.698
300.734
353.947
310.067
338.303
300.8
300.706
310.067
356.096
300.605
343.686
310.067
310.067
311.698
370.754
311.698
311.698
311.698
302.118
302.931
366.03
310.067
311.698
353.947
356.096
371.487
360.658
353.947
353.947
359.843
353.947
311.698
300.802
356.096
310.067
353.947
361.913
351.655
311.698
356.096
356.096
301.242
311.698
310.067
310.067
310.067
361.712
301.113
310.067
311.698
310.067
342.574
300.516
365.02
356.096
356.096
311.698
356.096
353.947
353.947
353.947
353.947
353.947
366.834
353.947
300.964
302.519
302.118
346.648
311.698
350.569
302.118
310.067
353.947
300.632
300.681
310.067
310.067
311.698
361.419
311.698
300.477
353.947
310.067
360.339
310.067
353.947
311.698
300.675
353.947
353.947
356.096
353.947
356.096
353.947
311.698
311.698
311.698
356.096
310.067
353.947
300.794
379.687
310.067
340.817
353.947
356.096
341.44
300.706
311.698
356.096
311.698
302.864
356.096
353.947
300.702
310.067
353.947
310.067
310.067
311.698
300.676
311.698
356.096
353.947
356.096
356.096
310.067
311.698
310.067
300.648
311.698
353.947
371.032
371.087
301.784
300.471
300.755
311.698
353.947
311.698
310.067
302.592
310.067
300.697
310.067
353.947
353.947
353.947
310.067
346.648
353.947
300.716
300.472
300.708
300.455
353.947
310.067
353.947
310.067
310.067
353.947
311.698
356.096
356.096
356.096
300.789
356.096
356.096
361.422
356.096
373.478
338.02
356.096
381.851
362.271
311.698
353.947
353.947
310.067
310.067
311.698
300.821
310.067
345.301
353.947
310.067
356.096
356.096
310.067
352.984
356.096
300.705
310.067
301.152
353.947
345.543
311.698
353.947
353.947
311.698
376.225
300.632
300.649
311.698
300.81
353.947
353.947
353.947
311.698
345.301
353.947
353.947
353.947
356.096
353.947
310.067
356.096
353.947
342.97
310.067
353.947
301.414
353.947
360.958
310.067
339.934
356.096
301.152
300.794
377.126
371.064
369.544
300.685
361.998
340.817
364.963
356.096
353.947
356.096
356.096
310.067
311.698
356.096
353.947
311.698
302.306
311.698
356.096
311.698
311.698
302.757
302.831
353.947
356.096
353.947
346.648
300.709
357.313
310.067
351.655
356.096
356.096
311.698
300.452
356.096
353.947
300.923
361.706
310.067
311.698
310.067
311.698
311.698
310.067
354.54
356.096
378.959
353.947
311.698
300.676
356.096
300.691
364.22
339.738
353.947
356.096
353.947
301.162
301.591
344.338
356.096
300.8
310.067
342.018
311.698
344.919
300.723
311.698
300.785
353.947
310.067
311.698
301.64
310.067
379.729
300.452
356.096
356.096
301.978
300.744
379.492
360.958
310.067
311.698
311.698
356.096
356.096
339.934
301.068
301.707
356.096
310.067
311.698
368.671
311.698
310.067
353.947
356.096
371.621
353.947
353.947
364.568
353.947
353.947
300.964
356.096
300.466
356.096
384.369
310.067
361.042
353.947
353.947
356.096
311.698
353.947
356.096
300.832
353.947
365.284
338.536
310.067
300.789
302.273
301.47
356.096
356.096
340.817
372.801
354.54
353.947
356.096
340.556
351.223
311.698
310.067
310.067
300.655
300.492
356.096
370.34
310.067
310.067
356.096
356.096
342.97
311.698
361.712
353.947
353.947
311.698
353.947
311.698
310.067
300.485
311.698
338.115
310.067
353.947
353.947
356.096
310.067
353.947
310.067
300.653
300.71
300.677
353.947
356.096
300.59
300.697
300.648
310.067
310.067
300.96
356.096
301.231
311.698
353.947
371.566
338.782
311.698
300.734
311.698
351.655
361.712
353.947
310.067
346.161
310.067
361.199
300.668
311.698
311.698
300.755
353.947
310.067
356.096
300.655
300.675
310.067
353.947
356.096
356.096
347.745
356.096
356.096
300.705
353.947
370.34
311.698
311.698
300.8
337.879
353.947
356.096
356.096
310.067
353.947
370.673
356.096
302.213
353.947
372.009
300.836
340.235
310.067
356.096
302.04
351.019
356.096
310.067
353.947
311.698
377.126
353.947
311.698
310.067
356.096
340.556
353.947
300.855
353.947
356.096
300.81
371.405
302.893
310.067
370.668
310.067
311.698
311.698
311.698
300.652
378.382
311.698
310.067
366.494
310.067
353.947
356.096
356.096
353.947
356.096
301.64
378.382
310.067
310.067
310.067
311.698
310.067
311.698
311.698
310.067
356.096
300.924
310.067
356.096
311.698
311.698
301.381
300.472
356.096
301.934
301.061
356.096
310.067
356.096
356.096
311.698
338.02
353.947
301.533
353.947
300.847
300.652
310.067
300.785
302.264
311.698
311.698
300.676
300.48
339.738
356.096
371.32
301.707
300.59
353.947
311.698
301.322
371.064
311.698
310.067
311.698
301.231
311.698
341.587
310.067
300.96
353.947
311.698
356.096
310.067
300.785
302.831
353.947
356.096
310.067
342.574
353.947
311.698
301.934
311.698
353.947
310.067
300.59
366.973
343.686
311.698
311.698
310.067
356.096
356.096
356.096
300.821
310.067
311.698
370.754
353.947
311.698
300.578
310.067
310.067
311.698
353.947
310.067
356.096
310.067
353.947
353.947
300.832
310.067
353.947
359.843
310.067
356.096
366.815
365.672
364.504
353.947
342.286
356.096
311.698
311.698
372.933
301.013
371.727
310.067
311.698
356.096
300.802
311.698
353.947
311.698
365.185
361.199
353.947
339.035
310.067
310.067
311.698
356.096
311.698
356.096
311.698
311.698
351.019
356.096
338.288
300.554
300.652
310.067
300.681
356.096
311.698
353.947
300.96
353.947
300.779
338.288
353.947
310.067
311.698
356.096
300.677
353.947
301.657
353.947
356.096
356.096
356.096
311.698
353.947
356.096
365.185
356.096
356.096
311.698
353.947
311.698
311.698
310.067
311.698
310.067
311.698
353.947
356.096
361.706
310.067
310.067
342.286
311.698
300.697
300.794
311.698
353.947
353.947
310.067
310.067
311.698
300.683
366.494
300.477
356.096
351.655
353.947
311.698
353.947
300.632
356.096
311.698
353.947
356.096
310.067
353.947
310.067
311.698
310.067
372.951
371.175
300.672
311.698
311.698
311.698
310.067
371.639
310.067
300.668
353.947
300.73
310.067
311.698
377.477
310.067
310.067
379.644
361.042
368.612
300.627
311.698
355.95
353.947
369.544
356.096
300.923
311.698
353.947
356.096
300.789
356.096
353.947
353.947
311.698
310.067
356.096
366.834
356.096
311.698
356.096
356.096
301.068
310.067
310.067
310.067
353.947
356.096
356.096
356.096
310.067
311.698
310.067
300.73
353.947
337.97
353.947
339.035
356.096
340.235
357.313
300.534
300.818
311.698
311.698
356.096
356.096
350.176
353.947
353.947
311.698
368.218
310.067
310.067
311.698
356.096
356.096
301.189
310.067
301.64
377.925
310.067
340.817
347.899
300.695
300.744
311.698
311.698
310.067
310.067
310.067
302.837
311.698
311.698
361.878
311.698
353.947
310.067
353.947
353.947
361.712
301.934
300.836
371.485
310.067
353.947
356.096
340.817
356.096
311.698
353.947
361.419
301.273
300.466
379.729
353.947
353.947
365.073
311.698
311.698
311.698
371.879
300.477
300.566
311.698
371.485
371.087
300.755
300.742
310.067
301.013
300.755
310.067
356.096
300.821
300.455
301.013
353.947
353.947
339.158
353.947
353.947
311.698
371.405
368.671
353.947
353.947
353.947
300.709
300.649
311.698
353.947
300.855
311.698
311.698
311.698
310.067
353.947
338.115
356.096
311.698
357.313
311.698
356.096
311.698
362.244
365.185
353.947
310.067
356.096
356.096
310.067
356.096
300.647
353.947
300.649
310.067
310.067
371.566
302.837
341.587
356.096
311.698
353.947
311.698
311.698
310.067
310.067
310.067
353.947
310.067
364.972
356.096
300.482
356.096
384.369
365.825
311.698
353.947
360.838
353.947
300.821
356.096
339.035
310.067
311.698
311.698
356.096
343.686
300.465
344.338
353.947
310.067
356.096
347.745
356.096
353.947
378.683
353.947
340.556
300.652
302.451
338.115
356.096
311.698
311.698
356.096
353.947
310.067
300.605
310.067
353.947
353.947
311.698
356.096
339.035
356.096
300.485
311.698
311.698
300.709
310.067
301.31
310.067
311.698
353.947
371.879
365.672
360.659
356.096
353.947
310.067
353.947
310.067
300.59
353.947
302.31
310.067
356.096
356.096
300.652
353.947
353.947
310.067
338.115
361.913
353.947
353.947
356.096
353.947
356.096
353.947
353.947
310.067
356.096
356.096
353.947
356.096
310.067
300.655
310.067
310.067
353.947
356.096
311.698
353.947
353.947
372.933
300.887
311.698
353.947
378.683
310.067
311.698
356.096
353.947
356.096
356.096
353.947
311.698
353.947
356.096
310.067
300.964
353.947
356.096
311.698
311.698
339.807
356.096
342.286
353.947
372.1
311.698
310.067
310.067
310.067
310.067
353.947
311.698
311.698
302.306
353.947
356.096
339.527
356.096
310.067
311.698
300.73
300.855
353.947
353.947
353.947
311.698
353.947
300.473
356.096