<?xml version="1.0"?>
<VTKFile type="PolyData" version="0.1" byte_order="LittleEndian">
  <PolyData>
    <Piece NumberOfPoints="50000" NumberOfVerts="50000" NumberOfLines="0" NumberOfStrips="0" NumberOfPolys="0">
      <Points>
        <DataArray type="Float32" NumberOfComponents="3" format="ascii">
0.164078 0.00397721 0
-0.154743 0.00164911 0
0.158735 -0.000605951 0
0.165848 -0.000390038 0
-0.134396 0.00304603 0
-0.112772 0.0013695 0
0.0545671 -0.0100457 0
-0.139201 0.000456449 0
0.0482885 -0.0077387 0
-0.0103967 0.00412697 0
0.124397 -0.00467337 0
0.158415 0.00367447 0
-0.0903379 0.00336311 0
-0.0637233 -0.00944706 0
-0.168999 0.00140386 0
0.12818 0.00546282 0
-0.0231192 -0.000382479 0
0.164399 0.00114394 0
0.062527 0.00106102 0
-0.154867 0.00199498 0
-0.162399 0.00272757 0
0.142328 0.00322234 0
-0.160126 0.00152252 0
0.16048 0.000472277 0
0.102126 -0.00471062 0
0.119215 0.00574654 0
-0.158529 -0.00259468 0
0.164793 -0.000908012 0
-0.113177 0.0100672 0
-0.167298 0.00418508 0
-0.125587 0.00542034 0
-0.116459 -0.00624012 0
0.163286 0.000811133 0
0.164174 4.238e-05 0
0.0315599 0.00257694 0
0.167015 -0.000193027 0
0.0509299 0.00109099 0
-0.166034 0.0015062 0
-0.15492 -0.00165382 0
-0.172317 -0.000538877 0
0.120157 0.00584404 0
0.127144 0.00299092 0
-0.158586 -0.000490062 0
0.162254 0.000772758 0
0.167871 0.00101391 0
-0.163172 0.00404943 0
0.159939 0.00251762 0
0.0819125 -0.00561725 0
0.157765 0.000619116 0
0.161549 0.00055528 0
0.067622 0.00925063 0
-0.160096 5.36262e-05 0
-0.110885 0.00435323 0
0.159508 0.00168808 0
-0.157516 0.00149606 0
-0.167811 0.00156015 0
0.164216 -2.92555e-05 0
0.0663004 0.00523051 0
0.122598 0.00357928 0
0.169486 -0.00150666 0
0.138191 0.0024415 0
0.166014 0.00159135 0
0.0367314 -0.0125762 0
0.169369 -0.000228747 0
-0.0537572 0.00740115 0
-0.157104 0.00109264 0
0.161008 0.000124154 0
0.165252 0.000228791 0
0.170857 0.00214751 0
0.118412 0.000894876 0
-0.158797 0.00185551 0
0.160921 0.00204393 0
0.0883217 0.00103768 0
0.0897425 0.00329521 0
0.0766728 0.00260559 0
-0.161332 -0.00051423 0
0.140192 0.00559046 0
-0.152929 0.00229678 0
0.123815 0.0033055 0
-0.167427 0.00119736 0
-0.0836162 -0.013141 0
-0.164114 0.00232226 0
0.152206 0.00261102 0
-0.159625 0.00078944 0
0.169279 -0.00141458 0
-0.159845 0.00189116 0
0.169516 -0.00137952 0
-0.0714741 -0.00292839 0
-0.0690584 0.00984924 0
-0.161476 -0.00238705 0
0.159547 0.00325223 0
-0.157912 0.000271308 0
0.160047 -0.000214319 0
-0.108255 0.0084686 0
-0.0158162 -0.00827126 0
-0.141799 0.00268038 0
0.160046 0.00408971 0
-0.16264 0.00186219 0
-0.171624 0.00351473 0
-0.169997 0.000127299 0
-0.142289 -0.00252105 0
-0.158534 -0.0017727 0
0.170518 0.00027293 0
-0.067963 -0.00779331 0
0.171723 0.000324283 0
0.14029 0.00566119 0
0.103957 0.00329321 0
0.00859922 0.00369695 0
0.157674 0.00236606 0
-0.160693 -0.00136223 0
-0.12053 0.00849166 0
-0.162862 0.00182291 0
-0.138666 0.00480861 0
113.419 164.067 0
0.107668 0.00352101 0
-0.160432 0.00198965 0
-0.166413 0.00232761 0
2.90086 3.96812 0
-0.161793 0.00119743 0
-0.00762923 -0.00292579 0
0.164857 -2.31405e-05 0
-0.156136 -0.00102168 0
0.111363 -0.000848992 0
-0.1489 0.00354106 0
0.161694 0.00026658 0
0.157226 0.00016478 0
0.0517032 0.010171 0
0.165898 0.00233123 0
-0.144184 -0.00224204 0
0.125309 0.000174758 0
0.167086 -0.000729515 0
0.165679 0.000380927 0
-0.170799 0.000841869 0
-0.142385 0.00217569 0
0.169824 -0.000171047 0
0.161443 0.00014033 0
0.155519 -0.000586481 0
-0.0252142 0.00180665 0
0.129836 -0.00516515 0
0.126406 -0.00425629 0
0.129783 -0.00525938 0
0.153976 0.00443308 0
0.166809 -0.000813097 0
-0.037944 -0.00508199 0
-0.165694 0.00324704 0
0.110431 -0.00851516 0
-0.105605 0.0086174 0
-0.163397 0.00133671 0
-0.116175 -0.00745852 0
-0.163946 0.00201808 0
0.125695 0.00353252 0
0.160382 0.00148381 0
-0.0492796 -0.00421654 0
0.130375 -0.00361316 0
0.129611 0.00392674 0
0.159135 0.0021487 0
0.108798 -0.00336605 0
-0.160733 0.00164836 0
-0.0689039 -0.0018736 0
0.166362 0.000405348 0
0.111158 -0.00011971 0
-0.14592 -0.000697035 0
-0.157919 0.00154098 0
-0.164229 0.00156494 0
-0.0419983 0.00456439 0
0.128017 -0.00200958 0
0.144682 -0.00171459 0
0.14645 0.00203192 0
0.12297 0.00378634 0
-0.0670365 0.000767312 0
0.171262 -0.00142652 0
-0.157384 0.00177921 0
-0.0369048 -0.00184521 0
0.165707 0.00232929 0
-0.0295304 -0.000856659 0
-0.126644 0.00687398 0
-0.157814 0.00152582 0
-0.0954499 -0.00392138 0
-0.160079 -0.000436804 0
-0.160824 -0.00216959 0
0.15875 0.000514011 0
-0.162602 0.00310599 0
-0.160109 0.00270183 0
0.163998 0.00272915 0
0.159834 0.000176501 0
0.123325 -0.00644472 0
0.171628 -0.000833406 0
0.16969 0.000723767 0
0.164705 -0.000943817 0
0.0186311 0.0123868 0
0.167478 -0.000931434 0
0.135476 -0.00314933 0
-0.107826 -0.0068713 0
0.150717 0.00313811 0
-0.148514 0.00309714 0
0.15877 0.0012603 0
-0.132164 0.00526768 0
-0.141042 0.00266572 0
-0.158338 0.00207831 0
0.160857 0.00256913 0
-0.105371 0.00817669 0
0.169191 0.00164285 0
0.14681 -0.00167317 0
-0.0328123 -0.00233282 0
0.171511 -0.00146777 0
-0.156322 -0.00275713 0
0.0223714 0.0196136 0
0.0681958 -0.00215472 0
-0.141109 0.00485124 0
-0.099149 -0.00358325 0
0.157195 0.000785974 0
-0.0688745 -0.00793268 0
0.147965 -0.000943916 0
-0.136358 0.00497918 0
-0.09311 -0.00585886 0
-0.16416 0.00296169 0
-0.161967 0.00362187 0
0.162932 0.000433555 0
-0.166231 -5.87147e-05 0
-0.0190855 0.00899704 0
-0.1277 0.00526627 0
-0.166041 0.00197347 0
-0.153854 -0.0020714 0
0.170087 -0.000647319 0
0.0601662 0.0104805 0
-0.157927 0.00173394 0
0.170825 0.00100102 0
0.164141 0.000212071 0
-0.140048 0.0044694 0
-0.165622 0.000243447 0
-0.163014 -0.00107596 0
0.159795 0.0022864 0
0.0830008 0.0100579 0
-0.0246623 0.00657949 0
-0.168558 0.00229446 0
-0.1449 0.00289997 0
0.12522 -0.00655321 0
-0.127347 -0.00130252 0
-0.16097 0.00185503 0
0.0994787 -0.000652489 0
0.167726 0.000525339 0
-0.148015 -0.00228348 0
-0.162953 0.0018624 0
-0.0936316 -0.00515001 0
0.0820506 0.00329638 0
0.146379 0.00222674 0
-0.153552 0.00336185 0
0.164256 0.000211675 0
0.168825 0.00161624 0
0.0968369 0.00560562 0
0.101101 0.00230174 0
-0.153029 0.0025586 0
0.158521 -0.000654332 0
-0.0719733 -0.00328162 0
-0.147941 0.00380782 0
0.158865 0.000427461 0
-0.143385 0.00372672 0
0.1403 0.00416966 0
0.06092 0.00997477 0
0.0881453 0.000662751 0
0.168829 0.000915131 0
-0.152975 0.00248854 0
0.0311531 -0.00280535 0
0.0158278 -0.00511237 0
-0.10892 0.00189829 0
-0.160945 0.000918415 0
-0.158331 0.00168558 0
-0.157435 -8.66262e-05 0
0.162809 0.000130949 0
0.161411 0.000213147 0
0.166307 0.000155157 0
-0.162452 -0.000687067 0
0.10673 0.00177631 0
0.00901384 0.00543618 0
-0.169475 0.00253513 0
-0.164719 0.00142651 0
0.158103 0.000384196 0
-0.157444 0.00172053 0
0.156671 0.0031711 0
-0.159889 -0.000104383 0
-0.154758 0.000441017 0
-0.0710877 -0.00873036 0
-0.162364 0.0014914 0
0.154274 -0.000351382 0
-0.137641 0.00485305 0
-0.155121 -0.000798176 0
-0.0611527 0.00855032 0
-0.16197 0.0018126 0
-0.164379 0.00203698 0
0.139197 -0.000719188 0
-0.0573257 0.00326127 0
0.162558 0.000162681 0
0.166099 -0.000633903 0
0.105742 0.00614772 0
0.168504 0.00188268 0
0.160337 0.00307301 0
0.167816 0.00224818 0
-0.110642 0.00992547 0
-0.15206 0.00132483 0
-0.168874 0.000878524 0
0.172197 0.000910343 0
-0.0223713 0.00350474 0
0.161965 -0.000172091 0
0.158222 0.00188697 0
0.166727 0.00023773 0
0.0288658 0.0054471 0
-0.0846649 0.0106047 0
0.14027 0.00270683 0
-0.0190375 0.000678978 0
-0.0790107 0.00429275 0
-0.132599 0.00518067 0
0.162666 0.00326137 0
-0.117275 0.00638858 0
0.150242 -0.00163905 0
0.123908 -0.00138765 0
-0.168506 0.00303654 0
0.131918 -0.00541114 0
0.170546 -0.00156016 0
0.15246 -0.00068642 0
0.163172 0.00355937 0
-0.164381 0.00267043 0
-0.0355482 0.00659307 0
0.16614 0.00137709 0
0.165507 0.000160268 0
0.0762713 0.0105181 0
-0.156979 0.000306321 0
-0.153733 0.00254474 0
0.170312 0.000742662 0
-0.157005 -0.000714532 0
0.164534 0.00156287 0
0.165573 -0.000442276 0
0.0791836 -0.00891037 0
0.158389 0.00195814 0
-0.161395 0.00184208 0
-0.137784 0.000265871 0
-0.0923646 -0.000507466 0
0.0135085 -0.00258534 0
0.0200331 -0.0112282 0
-0.148004 0.00187071 0
0.0736642 -0.00994926 0
-0.0166494 0.0167593 0
-0.166767 0.00295935 0
-0.118725 0.0060231 0
-0.162708 0.0023028 0
-0.0668673 -0.00495356 0
0.165626 0.00334325 0
-0.115219 0.00670035 0
-0.164862 0.000470694 0
-23.6801 97.9494 0
0.165171 -0.00157064 0
0.164605 9.81856e-05 0
-0.133813 0.00623433 0
0.16024 0.00175778 0
0.151884 0.000133875 0
-216.884 -387.864 0
0.0506228 0.00643162 0
-0.163117 0.00200509 0
-0.135194 -0.00047839 0
0.163304 0.00197584 0
1.56831 -3.22903 0
0.1545 0.00255652 0
-0.159726 -0.0019481 0
-0.10149 0.000627723 0
-0.162214 -0.000837559 0
-0.165267 0.00322835 0
0.162157 0.00013586 0
-0.16754 -6.39268e-05 0
-0.145169 0.00422471 0
0.127063 0.00561175 0
-0.157935 0.000537898 0
-0.131352 0.00624101 0
-0.145933 0.00383807 0
0.163723 0.00225013 0
0.147679 -0.0022778 0
-0.096802 0.00820803 0
0.168519 -0.000286882 0
-0.163258 -0.00179016 0
-0.151362 -0.000943233 0
-0.164967 0.00101718 0
0.0146958 -0.0119293 0
-0.158885 -0.00166766 0
0.161848 0.00228654 0
-0.161642 0.00200742 0
-0.160995 0.00131195 0
-0.039131 0.00662864 0
0.10573 0.00606925 0
-0.0519428 0.0151941 0
0.0350509 0.00885251 0
-0.163278 0.00209377 0
-0.0290022 0.00199878 0
-0.163661 0.000113345 0
-0.164416 0.00273379 0
0.158044 -0.00179522 0
0.138924 0.00435067 0
-0.153564 0.00311866 0
0.147103 0.00254607 0
0.145771 0.00109954 0
-0.156791 0.00175841 0
-0.0861223 -0.00232504 0
0.115209 -0.00640719 0
-0.15717 0.000845123 0
0.139622 -0.00304858 0
0.0642503 -0.00139206 0
-0.161188 0.000120891 0
0.151718 0.000306927 0
0.159584 -0.000383836 0
0.162313 -0.00133885 0
0.165273 -6.51517e-05 0
0.167966 0.00057779 0
0.159499 0.00337138 0
-0.162473 0.00163942 0
0.11735 0.00445583 0
-0.133842 -0.00150919 0
0.0769987 0.011308 0
-0.15292 0.00162611 0
-0.0541384 -0.00171206 0
-0.126488 0.00528531 0
0.0468611 -0.00510503 0
-0.165822 0.00210191 0
0.159514 0.000132456 0
-0.0440885 0.0124469 0
0.0571976 0.00683375 0
[...]
      <PointData Scalars="T">
        <DataArray type="Float32" Name="T" format="ascii" NumberOfComponents="1">
309.992
359.857
311.153
311.153
360.092
382.982
311.153
398.546
311.153
360.092
311.153
309.992
360.092
365.097
385.434
309.992
365.097
300.743
300.685
360.092
360.092
309.992
373.891
300.967
311.153
309.992
365.097
311.153
360.092
360.092
360.092
365.097
300.553
302.233
309.992
311.153
300.735
383.418
365.097
365.097
309.992
309.992
365.097
300.589
300.514
360.092
309.992
311.153
300.793
300.865
309.992
407.589
360.092
302.872
388.871
368.793
311.153
309.992
309.992
311.153
309.992
301.943
311.153
311.153
360.092
400.647
301.61
301.366
309.992
300.525
349.579
309.992
300.548
309.992
309.992
365.097
309.992
360.092
309.992
388.559
365.097
360.092
309.992
385.346
311.153
350.292
311.153
365.097
360.092
365.097
309.992
398.063
311.153
360.092
365.097
360.092
309.992
349.366
360.092
409.19
365.097
365.097
301.307
365.097
301.253
309.992
309.992
309.992
309.992
365.097
360.092
350.196
360.092
309.992
309.992
360.092
360.092
309.992
388.559
365.097
311.153
365.097
311.153
360.092
301.335
301.411
309.992
309.992
365.097
301.395
311.153
301.034
394.568
360.092
311.153
301.479
311.153
350.884
311.153
311.153
311.153
309.992
311.153
365.097
360.092
311.153
360.092
382.93
365.097
360.092
309.992
301.203
365.097
311.153
309.992
309.992
311.153
359.857
365.097
300.997
311.153
365.097
370.302
368.793
360.092
311.153
311.153
309.992
309.992
383.707
311.153
352.349
365.097
309.992
365.097
360.092
373.891
365.097
365.097
365.097
300.946
360.092
360.092
309.992
301.395
311.153
311.153
300.63
311.153
309.992
311.153
311.153
365.097
309.992
360.092
300.771
360.092
360.092
360.092
309.992
360.092
302.473
311.153
365.097
311.153
365.097
309.992
311.153
360.092
365.097
300.579
365.097
311.153
360.092
365.097
360.092
360.092
300.952
365.097
360.092
360.092
360.092
365.097
311.153
309.992
353.651
300.509
301.367
360.092
401.065
365.097
309.992
309.992
360.092
360.092
360.092
311.153
365.097
349.579
311.153
300.93
365.097
349.366
365.097
309.992
309.992
360.092
301.367
302.185
309.992
309.992
360.092
311.153
365.097
360.092
300.961
360.092
309.992
309.992
300.687
300.514
360.092
311.153
311.153
350.292
389.969
356.272
365.097
301.546
301.367
301.434
365.097
303.234
309.992
360.092
385.573
301.034
353.985
309.992
365.097
397.898
365.097
388.871
311.153
360.092
365.097
360.092
350.543
360.092
311.153
360.092
301.411
311.153
309.992
303.749
309.992
309.992
360.092
383.819
392.502
300.514
360.092
311.153
303.749
301.368
309.992
360.092
309.992
382.031
360.092
360.092
309.992
360.092
311.153
311.153
360.092
311.153
311.153
311.153
309.992
360.092
360.092
300.888
301.411
309.992
398.045
360.092
300.61
365.097
301.778
311.153
311.153
309.992
349.71
399.68
365.097
311.153
311.153
349.466
311.153
360.092
360.092
360.092
360.092
365.097
309.992
360.092
399.537
360.092
311.153
301.85
360.092
303.163
301.546
365.097
309.992
360.092
365.097
309.992
311.153
309.992
365.097
387.281
365.097
360.092
301.546
365.097
360.092
309.992
395.039
360.092
360.092
309.992
311.153
360.092
311.153
365.097
365.097
398.819
311.153
365.097
309.992
360.092
384.296
360.092
309.992
360.092
309.992
360.092
360.092
409.786
360.092
311.153
309.992
360.092
309.992
300.735
352.791
365.097
311.153
394.568
311.153
311.153
409.19
301.271
311.153
311.153
311.153
300.826
309.992
361.358
309.992
365.097
309.992
363.19
365.097
360.092
311.153
360.092
301.546
360.092
309.992
349.841
300.828
301.289
309.992
311.153
349.71
370.302
311.153
360.092
309.992
368.793
309.992
402.188
365.097
360.092
360.092
303.511
300.743
360.092
311.153
382.031
404.509
365.097
360.092
365.097
309.992
311.153
365.097
301.431
365.097
365.097
311.153
311.153
365.097
360.092
384.663
365.097
300.535
365.097
300.656
360.092
365.097
301.271
309.992
365.097
365.097
360.092
360.092
309.992
384.29
311.153
301.546
309.992
360.092
360.092
360.092
300.967
309.992
388.772
365.097
365.097
369.604
300.718
309.992
301.368
300.487
360.092
309.992
309.992
300.507
355.544
309.992
311.153
402.961
311.153
354.341
360.092
360.092
365.097
404.509
365.097
365.097
365.097
311.153
311.153
311.153
309.992
311.153
309.992
309.992
365.097
309.992
364.869
311.153
309.992
360.092
309.992
360.092
388.559
360.092
389.502
309.992
311.153
309.992
302.014
311.153
311.153
360.092
309.992
309.992
384.555
309.992
384.29
349.841
365.097
311.153
311.153
360.092
360.092
365.097
407.589
365.097
309.992
309.992
300.888
309.992
365.097
360.092
309.992
360.092
300.571
309.992
365.097
349.366
311.153
360.092
303.446
309.992
365.097
309.992
365.097
302.443
399.999
360.092
300.735
311.153
365.097
365.097
394.244
358.924
360.092
309.992
311.153
302.233
300.514
309.992
365.097
387.281
398.805
365.097
350.752
309.992
311.153
360.092
309.992
365.097
300.507
309.992
300.687
377.247
309.992
365.097
398.759
309.992
311.153
365.097
309.992
350.752
311.153
311.153
309.992
301.165
365.097
365.097
360.092
401.726
309.992
365.097
311.153
406.848
365.097
309.992
301.034
365.097
365.097
360.092
360.092
311.153
311.153
360.092
396.568
365.097
309.992
311.153
351.883
360.092
311.153
311.153
309.992
309.992
373.891
365.097
365.097
365.097
365.097
309.992
360.092
309.992
302.36
365.097
360.092
301.01
311.153
365.097
360.092
311.153
365.097
365.097
355.544
311.153
365.097
384.375
309.992
360.092
366.576
311.153
309.992
352.791
309.992
311.153
383.029
309.992
301.368
360.092
360.092
311.153
301.289
301.034
309.992
309.992
398.805
398.045
360.092
360.092
309.992
360.092
365.097
300.544
309.992
360.092
381.15
360.092
301.61
309.992
309.992
309.992
360.092
301.307
311.153
390.591
360.092
302.36
301.67
309.992
309.992
301.431
360.092
309.992
303.139
311.153
349.71
309.992
360.092
311.153
303.401
311.153
309.992
311.153
360.092
300.87
392.913
309.992
353.985
360.092
360.092
311.153
365.097
309.992
349.911
301.034
309.992
365.097
311.153
394.244
365.097
399.321
381.15
360.092
360.092
301.38
311.153
311.153
301.068
311.153
387.497
309.992
351.389
398.379
311.153
311.153
358.125
300.539
360.092
309.992
360.092
360.092
360.092
365.097
365.097
300.553
360.092
309.992
360.092
365.097
360.092
365.097
365.097
300.961
309.992
311.153
360.092
365.097
360.092
383.419
365.097
360.092
365.097
309.992
352.516
365.097
311.153
311.153
301.366
384.347
360.092
365.097
309.992
365.097
300.727
360.092
365.097
407.498
309.992
301.068
309.992
300.771
311.153
360.092
360.092
311.153
360.092
309.992
385.573
309.992
370.302
365.097
303.087
350.292
300.777
360.092
360.092
311.153
300.735
365.097
309.992
311.153
300.765
309.992
360.092
365.097
398.679
309.992
360.092
300.78
309.992
311.153
311.153
400.993
360.092
300.771
360.092
360.092
311.153
301.034
303.749
302.014
360.092
365.097
309.992
360.092
301.203
309.992
350.884
360.092
302.674
392.176
311.153
301.367
360.092
349.466
311.153
300.553
360.092
365.097
365.097
309.992
300.777
387.497
360.092
368.726
386.008
365.097
311.153
360.092
311.153
384.586
311.153
301.165
385.014
302.288
381.15
309.992
301.75
360.092
365.097
302.674
311.153
309.992
309.992
309.992
309.992
349.841
309.992
311.153
398.379
311.153
309.992
360.092
300.967
311.153
309.992
360.092
360.092
365.097
311.153
365.097
301.75
365.097
377.247
360.092
309.992
365.097
397.434
365.097
311.153
401.504
360.092
311.153
301.679
365.097
365.097
311.153
360.092
311.153
311.153
407.589
309.992
365.097
301.023
311.153
309.992
311.153
309.992
309.992
360.092
301.16
311.153
302.159
360.092
301.546
365.097
360.092
365.097
311.153
309.992
359.857
365.097
360.092
311.153
360.092
360.092
300.93
301.367
309.992
309.992
360.092
384.375
311.153
360.092
309.992
360.092
365.097
300.772
365.097
311.153
360.092
365.097
360.092
360.092
360.092
387.497
365.097
360.092
360.092
309.992
392.42
311.153
311.153
311.153
311.153
309.992
360.092
300.997
360.092
309.992
349.911
309.992
300.942
365.097
309.992
360.092
311.153
309.992
311.153
406.848
302.159
360.092
300.535
365.097
365.097
309.992
365.097
360.092
360.092
365.097
311.153
309.992
309.992
309.992
365.097
311.153
407.118
311.153
300.656
309.992
309.992
303.087
311.153
301.75
365.097
309.992
303.115
365.097
360.092
311.153
360.092
300.514
360.092
365.097
360.092
384.29
365.097
352.516
301.841
365.097
309.992
385.573
311.153
360.092
309.992
360.092
360.092
309.992
309.992
360.092
311.153
309.992
300.883
300.579
365.097
360.092
396.568
398.757
311.153
360.092
300.735
360.092
360.092
311.153
311.153
360.092
309.992
311.153
300.865
311.153
360.092
300.946
309.992
360.092
360.092
360.092
365.097
360.092
311.153
350.884
311.153
365.097
300.821
311.153
309.992
351.883
365.097
365.097
360.092
311.153
309.992
365.097
311.153
300.73
365.097
365.097
311.153
360.092
300.751
311.153
309.992
365.097
360.092
360.092
360.092
309.992
398.671
303.661
382.93
360.092
301.367
309.992
309.992
311.153
309.992
397.051
393.107
365.097
353.985
301.368
302.098
309.992
309.992
309.992
309.992
365.097
360.092
360.092
360.092
397.32
352.516
355.544
300.715
311.153
311.153
301.356
311.153
353.985
311.153
360.092
300.563
365.097
360.092
309.992
388.871
392.199
301.479
399.657
311.153
311.153
311.153
311.153
309.992
309.992
311.153
309.992
365.097
300.548
383.419
309.992
309.992
300.907
407.498
311.153
365.097
309.992
309.992
309.992
309.992
360.092
311.153
360.092
309.992
300.93
311.153
397.748
395.019
394.568
311.153
311.153
365.097
309.992
368.726
302.185
301.75
365.097
360.092
392.199
311.153
309.992
360.092
301.411
360.092
302.36
360.092
350.196
389.969
360.092
311.153
311.153
365.097
360.092
360.092
360.092
311.153
365.097
309.992
360.092
309.992
302.872
360.092
363.19
309.992
360.092
301.117
311.153
311.153
360.092
300.589
311.153
365.097
360.092
311.153
360.092
301.367
360.092
349.366
301.372
365.097
365.097
300.972
300.952
309.992
311.153
309.992
410.502
301.323
309.992
360.092
360.092
311.153
353.985
309.992
300.507
385.575
359.857
309.992
398.299
384.9
300.706
311.153
398.96
385.434
311.153
360.092
392.42
365.097
408.208
360.092
311.153
311.153
360.092
360.092
311.153
365.097
311.153
309.992
309.992
360.092
360.092
311.153
385.346
309.992
360.092
309.992
311.153
382.93
311.153
311.153
365.097
353.651
365.097
365.097
350.884
360.092
360.092
360.092
309.992
300.961
311.153
360.092
311.153
360.092
357.237
301.01
352.349
349.366
309.992
357.237
365.097
311.153
365.097
365.097
309.992
360.092
309.992
301.119
311.153
311.153
360.092
302.764
300.77
360.092
349.466
309.992
360.092
360.092
300.656
302.288
301.271
365.097
301.434
360.092
300.771
311.153
392.798
352.516
354.341
311.153
300.952
360.092
360.092
360.092
365.097
301.069
365.097
311.153
365.097
365.097
300.907
309.992
311.153
365.097
309.992
311.153
309.992
385.575
302.288
393.58
396.421
360.092
359.857
387.736
365.097
365.097
309.992
303.342
365.097
360.092
360.092
311.153
360.092
360.092
349.911
365.097
365.097
311.153
311.153
309.992
350.196
309.992
309.992
301.38
365.097
311.153
300.802
309.992
300.544
309.992
360.092
394.244
396.553
360.092
382.411
301.67
365.097
365.097
309.992
360.092
365.097
360.092
383.707
377.247
349.366
399.537
311.153
365.097
365.097
360.092
365.097
360.092
311.153
365.097
360.092
311.153
311.153
311.153
365.097
365.097
360.092
309.992
352.791
407.498
300.789
360.092
349.466
360.092
309.992
360.092
309.992
309.992
311.153
365.097
311.153
300.777
365.097
398.777
311.153
309.992
365.097
360.092
360.092
311.153
360.092
409.19
360.092
309.992
309.992
311.153
309.992
365.097
360.092
352.516
311.153
309.992
360.092
309.992
309.992
396.568
365.097
365.097
309.992
309.992
309.992
370.302
309.992
396.553
309.992
360.092
360.092
384.296
303.087
301.068
311.153
311.153
365.097
311.153
311.153
385.963
357.237
309.992
309.992
300.826
360.092
311.153
351.883
311.153
309.992
311.153
300.706
398.805
360.092
398.546
309.992
311.153
311.153
301.271
360.092
309.992
350.292
301.323
300.957
309.992
365.097
300.735
358.125
309.992
309.992
311.153
398.045
311.153
311.153
311.153
311.153
309.992
392.2
309.992
311.153
360.092
365.097
399.016
382.413
360.092
360.092
382.413
360.092
311.153
301.372
365.097
309.992
360.092
385.876
373.891
311.153
365.097
365.097
302.473
311.153
309.992
309.992
309.992
384.296
302.295
309.992
311.153
309.992
360.092
300.603
389.398
365.097
365.097
311.153
365.097
360.092
360.092
360.092
360.092
360.092
392.176
360.092
301.841
303.661
311.153
361.358
311.153
368.793
311.153
309.992
360.092
300.685
300.846
309.992
309.992
311.153
385.014
311.153
300.527
360.092
309.992
383.856
309.992
360.092
311.153
300.952
360.092
360.092
365.097
360.092
365.097
360.092
311.153
311.153
311.153
365.097
309.992
360.092
301.367
365.097
309.992
353.985
360.092
365.097
360.092
300.957
311.153
365.097
311.153
309.992
365.097
360.092
300.907
309.992
360.092
309.992
309.992
311.153
301.01
311.153
365.097
360.092
365.097
365.097
309.992
311.153
309.992
300.718
311.153
360.092
398.757
397.898
311.153
300.523
301.307
311.153
360.092
311.153
309.992
303.938
309.992
300.972
309.992
360.092
360.092
360.092
309.992
363.19
360.092
301.229
300.514
300.952
300.493
360.092
309.992
360.092
309.992
309.992
360.092
311.153
365.097
365.097
365.097
301.366
365.097
365.097
384.586
365.097
401.065
349.579
365.097
365.097
385.575
311.153
360.092
360.092
309.992
309.992
311.153
301.395
309.992
361.358
360.092
309.992
365.097
365.097
309.992
383.418
365.097
300.888
309.992
302.09
360.092
360.092
311.153
360.092
360.092
311.153
406.461
300.685
300.806
311.153
301.38
360.092
360.092
360.092
311.153
361.358
360.092
360.092
360.092
365.097
360.092
309.992
365.097
360.092
357.237
309.992
360.092
311.153
360.092
383.707
309.992
352.791
365.097
302.09
301.369
407.118
397.37
396.553
300.958
385.346
353.985
388.423
365.097
360.092
365.097
365.097
309.992
311.153
365.097
360.092
311.153
303.414
311.153
365.097
311.153
311.153
309.992
309.992
360.092
365.097
360.092
363.19
300.925
384.375
309.992
377.247
365.097
365.097
311.153
300.479
365.097
360.092
301.546
385.168
309.992
311.153
309.992
311.153
311.153
309.992
388.871
365.097
365.097
360.092
311.153
300.997
365.097
300.883
387.281
360.092
360.092
365.097
360.092
302.36
311.153
358.924
365.097
301.269
309.992
360.092
311.153
360.092
301.253
311.153
301.368
360.092
309.992
311.153
311.153
309.992
411.309
300.479
365.097
365.097
311.153
301.307
365.097
384.347
309.992
311.153
311.153
365.097
365.097
352.791
302.185
303.087
365.097
309.992
311.153
395.019
311.153
309.992
360.092
365.097
399.321
360.092
360.092
390.293
360.092
360.092
301.943
365.097
300.502
365.097
365.097
309.992
383.819
360.092
360.092
365.097
311.153
360.092
365.097
301.478
360.092
388.872
350.543
309.992
301.366
303.342
311.153
365.097
365.097
353.985
400.347
388.871
360.092
365.097
353.651
373.891
311.153
309.992
309.992
300.778
300.553
365.097
396.421
309.992
309.992
365.097
365.097
357.237
311.153
383.819
360.092
360.092
311.153
360.092
311.153
309.992
300.553
311.153
349.71
309.992
360.092
360.092
365.097
309.992
360.092
309.992
300.743
300.917
300.952
360.092
365.097
300.715
300.967
300.727
309.992
309.992
301.67
365.097
302.233
311.153
360.092
398.299
350.884
311.153
301.271
311.153
377.247
384.296
360.092
309.992
360.092
309.992
383.126
300.814
311.153
311.153
301.335
360.092
309.992
365.097
300.789
300.961
309.992
360.092
365.097
365.097
360.092
365.097
365.097
300.87
360.092
397.37
311.153
311.153
301.269
349.366
360.092
365.097
365.097
309.992
360.092
398.063
365.097
303.296
360.092
399.367
301.434
353.271
309.992
365.097
311.153
370.302
365.097
309.992
360.092
311.153
407.118
360.092
311.153
309.992
365.097
353.651
360.092
301.479
360.092
365.097
301.38
398.546
309.992
309.992
396.553
309.992
311.153
311.153
311.153
300.779
409.605
311.153
309.992
392.176
309.992
360.092
365.097
365.097
360.092
365.097
311.153
409.605
309.992
309.992
309.992
311.153
309.992
311.153
311.153
309.992
365.097
301.679
309.992
365.097
311.153
311.153
302.872
300.525
365.097
311.153
301.938
365.097
309.992
365.097
365.097
311.153
349.71
360.092
311.153
360.092
301.431
300.779
309.992
301.362
311.153
311.153
311.153
301.01
300.535
360.092
365.097
398.759
303.087
300.715
360.092
311.153
302.443
398.379
311.153
309.992
311.153
302.288
311.153
354.894
309.992
301.67
360.092
311.153
365.097
309.992
301.368
309.992
360.092
365.097
309.992
360.092
360.092
311.153
311.153
311.153
360.092
309.992
300.603
393.022
358.125
311.153
311.153
309.992
365.097
365.097
365.097
301.395
309.992
311.153
398.045
360.092
311.153
300.701
309.992
309.992
311.153
360.092
309.992
365.097
309.992
360.092
360.092
301.431
309.992
360.092
382.049
309.992
365.097
392.611
389.53
390.591
360.092
356.272
365.097
311.153
311.153
401.28
302.098
399.158
309.992
311.153
365.097
301.372
311.153
360.092
311.153
387.703
383.126
360.092
360.092
309.992
309.992
311.153
365.097
311.153
365.097
311.153
311.153
370.302
365.097
349.911
300.672
300.777
309.992
300.865
365.097
311.153
360.092
301.67
360.092
301.362
349.911
360.092
309.992
311.153
365.097
300.952
360.092
303.039
360.092
365.097
365.097
365.097
311.153
360.092
365.097
387.703
365.097
365.097
311.153
360.092
311.153
311.153
309.992
311.153
309.992
311.153
360.092
365.097
385.963
309.992
309.992
355.544
311.153
300.972
301.369
311.153
360.092
360.092
309.992
309.992
311.153
301.034
394.568
300.514
365.097
373.891
360.092
311.153
360.092
300.685
365.097
311.153
360.092
365.097
309.992
360.092
309.992
311.153
309.992
399.959
399.158
300.821
311.153
311.153
311.153
309.992
399.511
309.992
300.846
360.092
301.268
309.992
311.153
406.848
309.992
309.992
365.097
383.819
389.969
300.76
311.153
388.833
360.092
397.268
365.097
301.546
311.153
360.092
365.097
301.366
365.097
360.092
360.092
311.153
309.992
365.097
392.176
365.097
311.153
365.097
365.097
302.295
309.992
309.992
309.992
360.092
365.097
365.097
365.097
309.992
311.153
309.992
301.253
360.092
349.841
360.092
360.092
365.097
353.271
384.375
300.63
301.323
311.153
311.153
365.097
365.097
367.623
360.092
360.092
311.153
392.205
309.992
309.992
311.153
365.097
365.097
302.159
309.992
311.153
407.498
309.992
354.341
360.092
301.117
301.307
311.153
311.153
309.992
309.992
309.992
309.992
311.153
311.153
385.876
311.153
360.092
309.992
360.092
360.092
384.296
311.153
301.411
398.489
309.992
360.092
365.097
354.341
365.097
311.153
360.092
385.014
302.369
300.508
410.204
360.092
360.092
389.398
311.153
311.153
311.153
401.065
300.548
300.687
311.153
398.819
398.546
301.307
301.069
309.992
302.098
301.307
309.992
365.097
301.395
300.493
302.098
360.092
360.092
351.389
360.092
360.092
311.153
399.016
395.019
360.092
360.092
360.092
300.922
300.806
311.153
360.092
301.479
311.153
311.153
311.153
309.992
360.092
349.71
365.097
311.153
384.375
311.153
365.097
311.153
386.008
387.703
360.092
309.992
365.097
365.097
309.992
365.097
300.771
360.092
300.806
309.992
309.992
399.959
309.992
354.894
365.097
311.153
360.092
311.153
311.153
309.992
309.992
309.992
360.092
309.992
389.769
365.097
300.54
365.097
365.097
389.769
311.153
360.092
383.856
360.092
301.395
365.097
360.092
309.992
311.153
311.153
365.097
358.924
300.493
359.857
360.092
309.992
365.097
360.092
365.097
360.092
365.097
360.092
353.651
300.779
303.511
349.911
365.097
311.153
311.153
365.097
360.092
309.992
300.715
309.992
360.092
360.092
311.153
365.097
360.092
365.097
300.553
311.153
311.153
300.925
309.992
302.674
309.992
311.153
360.092
399.68
389.53
384.663
365.097
360.092
309.992
360.092
309.992
300.715
360.092
311.153
309.992
365.097
365.097
300.777
360.092
360.092
309.992
349.71
385.876
360.092
360.092
365.097
360.092
365.097
360.092
360.092
309.992
365.097
365.097
360.092
365.097
309.992
300.789
309.992
309.992
360.092
365.097
311.153
360.092
360.092
401.28
301.546
311.153
360.092
365.097
309.992
311.153
365.097
360.092
365.097
365.097
360.092
311.153
360.092
365.097
309.992
301.841
360.092
365.097
311.153
311.153
352.349
365.097
355.544
360.092
399.367
311.153
309.992
309.992
309.992
309.992
360.092
311.153
311.153
303.401
360.092
365.097
352.349
365.097
309.992
311.153
301.268
301.479
360.092
360.092
360.092
311.153