<?xml version="1.0"?>
<VTKFile type="ImageData" version="0.1" byte_order="LittleEndian">
  <ImageData Origin="0 0 0" Spacing="1e-05 1e-05 1e-05" WholeExtent="0 191 0 191 0 0">
    <Piece Extent="0 191 0 191 0 0">
      <CellData Scalars="T">
        <DataArray type="Float32" Name="T" format="ascii" NumberOfComponents="1">
425.49
15000
14999.8
14999.5
14999
14998.1
14996.9
14995.1
14992.5
14988.9
14983.9
14977.1
14967.9
14955.9
14940.1
14919.9
14894.1
14861.6
14821.3
14771.6
14711.1
14638.2
14551.2
14448.3
14327.8
14188.1
14027.7
13845
13638.8
13408.3
13152.8
12872
12566
12235.5
11881.4
11505.1
11108.6
10694.2
10264.5
9822.68
9371.89
8915.67
8457.61
8001.35
7550.5
7108.55
6678.78
6264.23
5867.62
5491.32
5137.28
4807.07
4501.83
4222.25
3968.67
3741
3538.85
3361.5
3207.98
3077.09
2967.49
2877.7
2806.19
2751.4
2711.77
2685.78
2672
2669.07
2675.76
2690.93
2713.58
2742.84
2777.93
2818.21
2863.11
2912.17
2965.01
3021.29
3080.75
3143.15
3208.28
3275.98
3346.06
3418.38
3492.77
3569.07
3647.09
3726.66
3807.55
3889.53
3972.34
4055.67
4139.2
4222.56
4305.36
4387.16
4467.53
4545.99
4622.08
4695.34
4765.31
4831.59
4893.78
4951.54
5004.61
5052.74
5095.79
5133.66
5166.33
5193.81
5216.22
5233.69
5246.43
5254.69
5258.75
5258.92
5255.52
5248.91
5239.42
5227.36
5213.02
5196.66
5178.46
5158.56
5137.02
5113.82
5088.88
5062.05
5033.13
5001.88
4968.05
4931.39
4891.67
4848.72
4802.45
4752.83
4699.95
4644.03
4585.36
4524.38
4461.6
4397.63
4333.13
4268.83
4205.45
4143.72
4084.35
4027.99
3975.23
3926.6
3882.52
3843.34
3809.28
3780.53
3757.13
3739.09
3726.34
3718.73
3716.07
3718.13
3724.62
3735.23
3749.62
3767.4
3788.15
3811.44
3836.79
3863.69
3891.62
3920.03
3948.36
3976.04
4002.53
4027.28
4049.79
4069.62
4086.35
4099.63
4109.15
4114.6
4115.6
4111.49
4101.12
4082.14
4049.96
3995.53
3901.18
3732.45
3421.62
2833.01
1684.1
312.919
676.49
15000
14999.8
14999.5
14999
14998.1
14996.9
14995.1
14992.5
14988.9
14983.9
14977.1
14968
14955.9
14940.2
14920
14894.2
14861.8
14821.5
14771.8
14711.4
14638.5
14551.6
14448.7
14328.4
14188.8
14028.4
13845.8
13639.8
13409.4
13154
12873.3
12567.5
12237
11882.9
11506.7
11110.3
10695.9
10266.2
9824.32
9373.47
8917.14
8458.95
8002.53
7551.48
7109.3
6679.27
6264.44
5867.53
5490.91
5136.54
4805.99
4500.39
4220.47
3966.54
3738.53
3536.05
3358.38
3204.55
3073.38
2963.51
2873.48
2801.75
2746.76
2706.95
2680.8
2666.88
2663.83
2670.4
2685.48
2708.04
2737.22
2772.24
2812.44
2857.27
2906.26
2959.01
3015.22
3074.59
3136.9
3201.94
3269.54
3339.54
3411.76
3486.07
3562.28
3640.24
3719.75
3800.59
3882.55
3965.34
4048.69
4132.24
4215.66
4298.53
4380.43
4460.91
4539.52
4615.77
4689.22
4759.39
4825.88
4888.3
4946.31
4999.61
5048
5091.3
5129.41
5162.31
5190.02
5212.63
5230.3
5243.22
5251.64
5255.83
5256.11
5252.81
5246.26
5236.8
5224.76
5210.42
5194.03
5175.78
5155.82
5134.19
5110.9
5085.85
5058.92
5029.89
4998.53
4964.6
4927.84
4888.03
4845.01
4798.68
4749.01
4696.11
4640.18
4581.51
4520.55
4457.8
4393.88
4329.44
4265.19
4201.88
4140.22
4080.92
4024.64
3971.96
3923.4
3879.39
3840.26
3806.27
3777.57
3754.23
3736.24
3723.54
3715.97
3713.35
3715.44
3721.96
3732.59
3746.99
3764.77
3785.52
3808.79
3834.11
3860.97
3888.84
3917.18
3945.42
3973
3999.38
4024.01
4046.4
4066.1
4082.7
4095.86
4105.27
4110.61
4111.51
4107.34
4096.91
4077.94
4045.85
3991.73
3898.28
3732.22
3429.94
2871.1
1837.01
315.44
678.625
15000
14999.8
14999.5
14999
14998.2
14996.9
14995.1
14992.6
14988.9
14983.9
14977.1
14968
14956
14940.3
14920.1
14894.4
14862.1
14821.8
14772.3
14711.9
14639.2
14552.3
14449.7
14329.5
14190.1
14029.9
13847.5
13641.7
13411.6
13156.4
12875.9
12570.2
12240
11886.1
11510
11113.6
10699.2
10269.6
9827.6
9376.61
8920.09
8461.64
8004.89
7553.46
7110.83
6680.3
6264.92
5867.42
5490.16
5135.14
4803.91
4497.62
4217
3962.37
3733.69
3530.54
3352.24
3197.8
3066.06
2955.66
2865.14
2792.96
2737.57
2697.39
2670.92
2656.72
2653.41
2659.77
2674.65
2697.04
2726.05
2760.91
2800.96
2845.64
2894.48
2947.08
3003.12
3062.32
3124.45
3189.31
3256.73
3326.54
3398.58
3472.72
3548.77
3626.59
3705.98
3786.73
3868.62
3951.4
4034.75
4118.37
4201.88
4284.89
4366.98
4447.71
4526.59
4603.17
4676.97
4747.55
4814.47
4877.34
4935.82
4989.61
5038.49
5082.27
5120.87
5154.24
5182.4
5205.43
5223.49
5236.77
5245.5
5249.96
5250.46
5247.33
5240.92
5231.54
5219.53
5205.18
5188.74
5170.4
5150.3
5128.52
5105.04
5079.8
5052.65
5023.4
4991.83
4957.69
4920.74
4880.76
4837.6
4791.14
4741.39
4688.44
4632.48
4573.83
4512.9
4450.22
4386.38
4322.05
4257.93
4194.75
4133.24
4074.08
4017.94
3965.41
3916.99
3873.11
3834.12
3800.25
3771.67
3748.43
3730.55
3717.93
3710.45
3707.9
3710.06
3716.64
3727.31
3741.74
3759.52
3780.26
3803.49
3828.74
3855.51
3883.27
3911.46
3939.53
3966.91
3993.07
4017.47
4039.61
4059.05
4075.4
4088.32
4097.49
4102.63
4103.34
4099.02
4088.5
4069.51
4037.55
3983.86
3891.51
3728.06
3431.64
2884.26
1859.3
314.778
677.058
15000
14999.8
14999.5
14999
14998.2
14996.9
14995.1
14992.6
14989
14984
14977.2
14968.1
14956.1
14940.5
14920.4
14894.7
14862.5
14822.3
14772.9
14712.7
14640.1
14553.5
14451.1
14331.1
14192
14032.1
13850
13644.6
13414.7
13159.9
12879.7
12574.4
12244.4
11890.7
11514.8
11118.6
10704.2
10274.6
9832.5
9381.33
8924.53
8465.7
8008.48
7556.49
7113.21
6681.95
6265.76
5867.39
5489.2
5133.2
4800.97
4493.65
4212
3956.34
3726.65
3522.52
3343.26
3187.92
3055.32
2944.12
2852.86
2780.01
2724
2683.28
2656.32
2641.68
2637.99
2644
2658.58
2680.7
2709.46
2744.08
2783.9
2828.36
2876.96
2929.32
2985.11
3044.06
3105.92
3170.51
3237.64
3307.17
3378.95
3452.82
3528.64
3606.24
3685.45
3766.06
3847.86
3930.59
4013.96
4097.65
4181.3
4264.52
4346.88
4427.95
4507.24
4584.29
4658.62
4729.78
4797.33
4860.87
4920.05
4974.56
5024.16
5068.68
5107.99
5142.05
5170.88
5194.54
5213.18
5226.99
5236.19
5241.06
5241.9
5239.04
5232.82
5223.58
5211.62
5197.26
5180.74
5162.27
5141.99
5119.97
5096.23
5070.69
5043.22
5013.65
4981.77
4947.32
4910.09
4869.86
4826.48
4779.85
4729.98
4676.94
4620.95
4562.31
4501.45
4438.86
4375.16
4310.99
4247.05
4184.08
4122.77
4063.84
4007.92
3955.6
3907.39
3863.72
3824.92
3791.24
3762.82
3739.75
3722.01
3709.54
3702.18
3699.75
3702
3708.65
3719.39
3733.85
3751.64
3772.35
3795.52
3820.68
3847.31
3874.88
3902.85
3930.66
3957.75
3983.58
4007.63
4029.41
4048.47
4064.45
4077
4085.83
4090.65
4091.09
4086.55
4075.89
4056.85
4025.01
3971.73
3880.3
3718.65
3425.13
2880.63
1849.84
314.318
673.696
15000
14999.8
14999.5
14999
14998.2
14997
14995.2
14992.6
14989
14984.1
14977.3
14968.3
14956.3
14940.7
14920.7
14895.1
14863
14823
14773.7
14713.7
14641.4
14555
14452.8
14333.2
14194.4
14034.9
13853.3
13648.2
13418.8
13164.4
12884.6
12579.7
12250.1
11896.7
11521.1
11125
10710.8
10281.2
9838.98
9387.59
8930.44
8471.15
8013.34
7560.63
7116.52
6684.32
6267.09
5867.58
5488.19
5130.93
4797.38
4488.72
4205.71
3948.71
3717.67
3512.24
3331.72
3175.17
3041.43
2929.17
2836.92
2763.16
2706.33
2664.86
2637.23
2622
2617.79
2623.33
2637.49
2659.23
2687.64
2721.94
2761.44
2805.58
2853.87
2905.91
2961.36
3019.96
3081.47
3145.68
3212.45
3281.61
3353.02
3426.55
3502.04
3579.35
3658.31
3738.73
3820.39
3903.05
3986.42
4070.2
4154.02
4237.5
4320.21
4401.71
4481.52
4559.18
4634.19
4706.11
4774.47
4838.88
4898.96
4954.41
5004.97
5050.44
5090.69
5125.67
5155.37
5179.87
5199.28
5213.79
5223.62
5229.03
5230.33
5227.84
5221.89
5212.82
5200.95
5186.59
5169.98
5151.34
5130.82
5108.51
5084.42
5058.5
5030.62
5000.64
4968.34
4933.5
4895.9
4855.34
4811.68
4764.83
4714.78
4661.64
4605.61
4547
4486.21
4423.76
4360.23
4296.28
4232.59
4169.88
4108.86
4050.22
3994.59
3942.56
3894.63
3851.23
3812.69
3779.25
3751.06
3728.2
3710.67
3698.37
3691.18
3688.89
3691.27
3698.02
3708.83
3723.32
3741.12
3761.79
3784.88
3809.9
3836.34
3863.67
3891.34
3918.81
3945.51
3970.9
3994.48
4015.77
4034.35
4049.83
4061.9
4070.28
4074.69
4074.78
4069.95
4059.08
4039.95
4008.19
3955.25
3864.55
3704.16
3412.58
2871.97
1864.59
314.168
671.198
15000
14999.8
14999.5
14999
14998.2
14997
14995.2
14992.6
14989.1
14984.1
14977.4
14968.4
14956.5
14941
14921
14895.6
14863.6
14823.7
14774.7
14714.9
14642.8
14556.7
14454.9
14335.7
14197.3
14038.3
13857.1
13652.6
13423.7
13169.8
12890.6
12586.2
12257
11904.1
11528.8
11133
10718.9
10289.3
9846.99
9395.36
8937.83
8478
8019.5
7565.96
7120.86
6687.54
6269.06
5868.19
5487.35
5128.54
4793.4
4483.11
4198.44
3939.77
3707.09
3500.05
3317.97
3159.92
3024.76
2911.16
2817.67
2742.76
2684.88
2642.46
2613.99
2597.99
2593.1
2598.04
2611.65
2632.9
2660.85
2694.72
2733.82
2777.55
2825.44
2877.06
2932.09
2990.25
3051.31
3115.06
3181.36
3250.06
3321.01
3394.1
3469.19
3546.13
3624.77
3704.93
3786.41
3868.96
3952.32
4036.18
4120.19
4203.95
4287.07
4369.07
4449.51
4527.88
4603.72
4676.54
4745.89
4811.35
4872.53
4929.12
4980.83
5027.47
5068.88
5104.98
5135.77
5161.29
5181.66
5197.05
5207.66
5213.76
5215.63
5213.61
5208.01
5199.18
5187.43
5173.08
5156.38
5137.55
5116.75
5094.09
5069.58
5043.2
5014.84
4984.35
4951.55
4916.23
4878.18
4837.22
4793.22
4746.09
4695.85
4642.59
4586.51
4527.93
4467.24
4404.95
4341.65
4277.96
4214.58
4152.2
4091.53
4033.25
3977.99
3926.32
3878.75
3835.68
3797.46
3764.32
3736.42
3713.82
3696.53
3684.45
3677.46
3675.35
3677.87
3684.75
3695.63
3710.17
3727.96
3748.58
3771.55
3796.39
3822.59
3849.61
3876.91
3903.94
3930.15
3955.01
3978.01
3998.7
4016.66
4031.54
4043.02
4050.85
4054.76
4054.41
4049.23
4038.1
4018.85
3987.13
3934.47
3844.4
3685.19
3395.9
2859.88
1851.17
313.905
670.803
15000
14999.8
14999.5
14999
14998.2
14997
14995.2
14992.7
14989.1
14984.2
14977.5
14968.6
14956.7
14941.3
14921.4
14896.1
14864.2
14824.6
14775.7
14716.2
14644.4
14558.7
14457.3
14338.5
14200.6
14042.1
13861.5
13657.6
13429.3
13176
12897.5
12593.6
12265
11912.6
11537.7
11142.2
10728.4
10298.8
9856.43
9404.57
8946.64
8486.23
8026.98
7572.5
7126.31
6691.72
6271.82
5869.4
5486.88
5126.3
4789.31
4477.11
4190.5
3929.89
3695.27
3486.32
3302.39
3142.57
3005.7
2890.5
2795.51
2719.22
2660.07
2616.49
2586.97
2570.03
2564.29
2568.48
2581.41
2602.03
2629.41
2662.75
2701.33
2744.56
2791.94
2843.06
2897.57
2955.2
3015.71
3078.91
3144.65
3212.78
3283.19
3355.74
3430.33
3506.83
3585.07
3664.91
3746.15
3828.55
3911.87
3995.79
4079.98
4164.06
4247.61
4330.18
4411.31
4490.49
4567.26
4641.11
4711.59
4778.26
4840.72
4898.63
4951.7
4999.7
5042.46
5079.89
5111.96
5138.7
5160.2
5176.63
5188.18
5195.11
5197.69
5196.23
5191.07
5182.54
5170.97
5156.65
5139.86
5120.83
5099.73
5076.67
5051.7
5024.79
4995.87
4964.8
4931.42
4895.54
4856.98
4815.56
4771.16
4723.71
4673.24
4619.84
4563.71
4505.17
4444.6
4382.51
4319.47
4256.1
4193.08
4131.11
4070.86
4013.01
3958.19
3906.95
3859.79
3817.12
3779.28
3746.51
3718.94
3696.66
3679.65
3667.84
3661.08
3659.17
3661.86
3668.86
3679.83
3694.41
3712.18
3732.71
3755.53
3780.15
3806.05
3832.7
3859.55
3886.05
3911.68
3935.89
3958.22
3978.2
3995.44
4009.6
4020.4
4027.58
4030.91
4030.05
4024.45
4013.02
3993.6
3961.9
3909.49
3820.04
3662.03
3375.07
2844.32
1854.74
313.652
668.564
15000
14999.8
14999.5
14999
14998.2
14997
14995.2
14992.7
14989.2
14984.3
14977.7
14968.7
14957
14941.6
14921.8
14896.7
14865
14825.5
14776.9
14717.7
14646.2
14560.8
14459.8
14341.5
14204.2
14046.3
13866.3
13663
13435.5
13182.9
12905
12601.8
12273.9
11922
11547.6
11152.6
10739
10309.5
9867.18
9415.12
8956.8
8495.8
8035.76
7580.3
7132.91
6696.95
6275.5
5871.37
5486.99
5124.45
4785.38
4471.04
4182.25
3919.43
3682.61
3471.49
3285.43
3123.55
2984.72
2867.65
2770.92
2693
2632.34
2587.39
2556.62
2538.55
2531.79
2535.05
2547.14
2567.01
2593.69
2626.36
2664.32
2706.94
2753.72
2804.23
2858.12
2915.12
2974.99
3037.54
3102.61
3170.09
3239.85
3311.79
3385.79
3461.74
3539.52
3618.96
3699.88
3782.08
3865.31
3949.27
4033.63
4118.01
4202.01
4285.18
4367.05
4447.12
4524.9
4599.9
4671.63
4739.64
4803.53
4862.92
4917.51
4967.05
5011.34
5050.28
5083.82
5111.95
5134.77
5152.42
5165.06
5172.95
5176.36
5175.59
5170.96
5162.81
5151.46
5137.22
5120.37
5101.14
5079.72
5056.24
5030.75
5003.27
4973.72
4942.01
4907.99
4871.49
4832.35
4790.41
4745.57
4697.77
4647.04
4593.48
4537.31
4478.81
4418.39
4356.53
4293.79
4230.79
4168.2
4106.69
4046.93
3989.58
3935.25
3884.51
3837.84
3795.64
3758.24
3725.88
3698.7
3676.78
3660.1
3648.58
3642.08
3640.39
3643.27
3650.41
3661.46
3676.06
3693.8
3714.21
3736.84
3761.19
3786.73
3812.93
3839.25
3865.15
3890.09
3913.57
3935.1
3954.27
3970.69
3984.04
3994.06
4000.52
4003.18
4001.75
3995.68
3983.91
3964.3
3932.59
3880.44
3791.63
3634.94
3350.54
2824.41
1839.45
313.234
665.108
15000
14999.8
14999.5
14999
14998.2
14997
14995.3
14992.8
14989.3
14984.4
14977.8
14968.9
14957.2
14941.9
14922.3
14897.2
14865.7
14826.4
14778.1
14719.1
14648
14563
14462.5
14344.7
14208
14050.6
13871.3
13668.8
13442
13190.2
12913.1
12610.6
12283.4
11932.2
11558.4
11163.8
10750.6
10321.4
9879.07
9426.85
8968.18
8506.62
8045.79
7589.31
7140.7
6703.29
6280.21
5874.25
5487.89
5123.21
4781.9
4465.22
4174.03
3908.77
3669.51
3455.97
3267.54
3103.35
2962.3
2843.11
2744.38
2664.59
2602.2
2555.65
2523.41
2504.01
2496.04
2498.21
2509.3
2528.25
2554.09
2585.98
2623.18
2665.07
2711.14
2760.93
2814.11
2870.38
2929.5
2991.3
3055.62
3122.35
3191.36
3262.58
3335.91
3411.23
3488.44
3567.4
3647.94
3729.87
3812.95
3896.9
3981.39
4066.06
4150.51
4234.28
4316.92
4397.92
4476.77
4552.98
4626.05
4695.52
4760.96
4821.98
4878.24
4929.47
4975.47
5016.09
5051.25
5080.96
5105.26
5124.28
5138.18
5147.18
5151.55
5151.58
5147.59
5139.9
5128.84
5114.73
5097.84
5078.43
5056.69
5032.77
5006.75
4978.66
4948.45
4916.04
4881.33
4844.15
4804.38
4761.88
4716.56
4668.38
4617.37
4563.65
4507.42
4448.98
4388.73
4327.13
4264.74
4202.17
4140.05
4079.06
4019.85
3963.06
3909.31
3859.13
3813
3771.33
3734.43
3702.54
3675.8
3654.27
3637.96
3626.76
3620.55
3619.1
3622.17
3629.44
3640.58
3655.19
3672.85
3693.12
3715.52
3739.54
3764.66
3790.34
3816.05
3841.25
3865.41
3888.06
3908.71
3926.97
3942.48
3954.93
3964.08
3969.73
3971.67
3969.61
3963.02
3950.87
3931.05
3899.33
3847.44
3759.32
3604
3322.03
2799.34
1816.74
312.807
661.229
15000
14999.8
14999.5
14999
14998.2
14997
14995.3
14992.8
14989.3
14984.5
14977.9
14969.1
14957.5
14942.3
14922.7
14897.8
14866.4
14827.3
14779.2
14720.6
14649.8
14565.2
14465.2
14347.9
14211.7
14055.1
13876.5
13674.7
13448.7
13197.7
12921.4
12619.8
12293.4
11942.9
11569.8
11175.8
10763
10334.1
9891.88
9439.59
8980.62
8518.54
8056.96
7599.49
7149.64
6710.77
6286
5878.15
5489.71
5122.79
4779.09
4459.92
4166.16
3898.27
3656.37
3440.19
3249.15
3082.42
2938.92
2817.38
2716.4
2634.51
2570.15
2521.78
2487.87
2466.93
2457.56
2458.44
2468.37
2486.24
2511.09
2542.04
2578.35
2619.39
2664.62
2713.59
2765.94
2821.37
2879.65
2940.6
3004.07
3069.94
3138.12
3208.52
3281.07
3355.67
3432.23
3510.62
3590.7
3672.27
3755.13
3839
3923.57
4008.49
4093.35
4177.72
4261.12
4343.06
4423.02
4500.5
4574.98
4645.99
4713.07
4775.82
4833.88
4886.94
4934.79
4977.24
5014.2
5045.64
5071.58
5092.13
5107.43
5117.69
5123.16
5124.11
5120.87
5113.74
5103.06
5089.13
5072.26
5052.7
5030.66
5006.31
4979.75
4951.02
4920.12
4886.99
4851.54
4813.65
4773.21
4730.12
4684.29
4635.7
4584.4
4530.5
4474.23
4415.86
4355.8
4294.49
4232.49
4170.38
4108.79
4048.38
3989.77
3933.62
3880.49
3830.94
3785.42
3744.33
3707.98
3676.6
3650.34
3629.26
3613.33
3602.49
3596.58
3595.39
3598.65
3606.05
3617.25
3631.85
3649.42
3669.5
3691.61
3715.24
3739.87
3764.96
3789.98
3814.4
3837.7
3859.42
3879.1
3896.37
3910.87
3922.34
3930.56
3935.34
3936.49
3933.75
3926.61
3914.06
3894
3862.26
3810.66
3723.26
3569.3
3289.57
2769.48
1786.81
312.496
658.509
15000
14999.8
14999.5
14999
14998.2
14997
14995.3
14992.8
14989.4
14984.6
14978
14969.3
14957.7
14942.6
14923.1
14898.3
14867.1
14828.2
14780.4
14722
14651.6
14567.4
14467.8
14351
14215.5
14059.5
13881.6
13680.6
13455.4
13205.2
12929.8
12629.1
12303.6
11953.9
11581.6
11188.2
10776
10347.4
9905.38
9453.1
8993.92
8531.39
8069.12
7610.71
7159.67
6719.36
6292.9
5883.13
5492.57
5123.33
4777.17
4455.4
4158.93
3888.27
3643.56
3424.56
3230.73
3061.25
2915.07
2790.95
2687.52
2603.3
2536.75
2486.34
2450.53
2427.84
2416.87
2416.27
2424.85
2441.47
2465.16
2495.02
2530.31
2570.36
2614.63
2662.65
2714.06
2768.55
2825.88
2885.87
2948.39
3013.31
3080.55
3150.04
3221.71
3295.49
3371.3
3449.03
3528.54
3609.68
3692.23
3775.95
3860.53
3945.63
4030.86
4115.78
4199.92
4282.79
4363.86
4442.62
4518.55
4591.15
4659.95
4724.52
4784.47
4839.49
4889.31
4933.73
4972.63
5005.94
5033.68
5055.91
5072.77
5084.43
5091.13
5093.14
5090.76
5084.3
5074.08
5060.43
5043.64
5023.97
5001.67
4976.9
4949.8
4920.44
4888.83
4854.96
4818.76
4780.14
4739.01
4695.29
4648.93
4599.92
4548.31
4494.25
4437.93
4379.65
4319.79
4258.81
4197.23
4135.63
4074.62
4014.83
3956.89
3901.42
3848.98
3800.1
3755.24
3714.79
3679.04
3648.22
3622.48
3601.87
3586.37
3575.9
3570.3
3569.36
3572.82
3580.34
3591.59
3606.14
3623.58
3643.43
3665.2
3688.38
3712.45
3736.88
3761.12
3784.68
3807.04
3827.74
3846.37
3862.56
3875.98
3886.4
3893.62
3897.47
3897.79
3894.33
3886.61
3873.62
3853.32
3821.57
3770.27
3683.62
3531.17
3254.3
2740.83
1777.68
312.367
654.782
15000
14999.8
14999.5
14999
14998.2
14997.1
14995.3
14992.9
14989.4
14984.6
14978.1
14969.4
14957.9
14942.8
14923.5
14898.8
14867.7
14829
14781.4
14723.3
14653.2
14569.4
14470.2
14354
14219
14063.7
13886.5
13686.3
13461.9
13212.6
12938.1
12638.4
12313.7
11964.9
11593.4
11200.7
10789.1
10361
9919.31
9467.13
9007.84
8544.97
8082.1
7622.83
7170.67
6728.96
6300.86
5889.2
5496.52
5124.96
4776.29
4451.85
4152.6
3879.06
3631.41
3409.44
3212.66
3040.26
2891.22
2764.33
2658.23
2571.47
2502.52
2449.85
2411.94
2387.3
2374.51
2372.24
2379.27
2394.47
2416.82
2445.44
2479.54
2518.47
2561.64
2608.59
2658.94
2712.37
2768.65
2827.58
2889.04
2952.91
3019.11
3087.59
3158.29
3231.15
3306.11
3383.07
3461.92
3542.52
3624.67
3708.14
3792.64
3877.85
3963.37
4048.78
4133.62
4217.38
4299.54
4379.58
4456.97
4531.18
4601.74
4668.18
4730.11
4787.17
4839.06
4885.57
4926.54
4961.87
4991.54
5015.6
5034.16
5047.37
5055.44
5058.64
5057.25
5051.57
5041.93
5028.63
5012
4992.3
4969.78
4944.64
4917.03
4887.05
4854.75
4820.13
4783.16
4743.8
4701.96
4657.61
4610.7
4561.26
4509.35
4455.12
4398.76
4340.58
4280.96
4220.33
4159.2
4098.14
4037.75
3978.63
3921.41
3866.66
3814.97
3766.82
3722.67
3682.89
3647.79
3617.57
3592.38
3572.26
3557.21
3547.13
3541.85
3541.17
3544.8
3552.44
3563.69
3578.17
3595.43
3615
3636.38
3659.05
3682.49
3706.17
3729.58
3752.19
3773.52
3793.14
3810.64
3825.67
3837.96
3847.26
3853.42
3856.29
3855.74
3851.53
3843.2
3829.77
3809.21
3777.45
3726.47
3640.65
3489.88
3216.38
2709.63
1758.05
312.245
650.383
15000
14999.8
14999.5
14999
14998.2
14997.1
14995.4
14992.9
14989.5
14984.7
14978.2
14969.5
14958
14943.1
14923.8
14899.2
14868.3
14829.8
14782.3
14724.5
14654.7
14571.2
14472.5
14356.8
14222.3
14067.6
13891.1
13691.6
13468.1
13219.7
12946.1
12647.3
12323.5
11975.7
11605
11213.2
10802.2
10374.7
9933.4
9481.43
9022.15
8559.04
8095.69
7635.66
7182.48
6739.48
6309.81
5896.33
5501.57
5127.71
4776.54
4449.43
4147.35
3870.88
3620.21
3395.18
3195.32
3019.86
2867.81
2737.98
2629.03
2539.54
2467.99
2412.86
2372.64
2345.84
2331.03
2326.9
2332.19
2345.77
2366.62
2393.82
2426.58
2464.22
2506.16
2551.91
2601.07
2653.33
2708.44
2766.22
2826.51
2889.23
2954.3
3021.67
3091.29
3163.13
3237.13
3313.22
3391.31
3471.26
3552.91
3636.02
3720.35
3805.56
3891.28
3977.1
4062.56
4147.15
4230.35
4311.64
4390.46
4466.29
4538.63
4606.99
4670.94
4730.1
4784.16
4832.85
4876
4913.46
4945.2
4971.23
4991.62
5006.52
5016.12
5020.64
5020.37
5015.6
5006.64
4993.81
4977.43
4957.77
4935.1
4909.64
4881.57
4851.01
4818.03
4782.68
4744.96
4704.85
4662.31
4617.32
4569.88
4520
4467.79
4413.38
4357
4298.94
4239.56
4179.3
4118.66
4058.18
3998.44
3940.04
3883.56
3829.6
3778.68
3731.3
3687.9
3648.85
3614.42
3584.83
3560.22
3540.63
3526.03
3516.34
3511.39
3510.96
3514.76
3522.47
3533.72
3548.08
3565.12
3584.34
3605.26
3627.36
3650.11
3672.98
3695.46
3717.05
3737.29
3755.75
3772.05
3785.87
3796.95
3805.1
3810.15
3812.01
3810.56
3805.57
3796.61
3782.72
3761.9
3730.14
3679.49
3594.56
3445.63
3175.72
2675.83
1737.15
312.2
641.502
15000
14999.8
14999.5
14999
14998.2
14997.1
14995.4
14992.9
14989.5
14984.7
14978.3
14969.6
14958.2
14943.3
14924
14899.6
14868.8
14830.4
14783.1
14725.5
14656
14572.9
14474.5
14359.2
14225.3
14071.2
13895.4
13696.6
13473.9
13226.3
12953.7
12655.7
12332.9
11986.1
11616.3
11225.3
10815.1
10388.2
9947.4
9495.75
9036.58
8573.36
8109.65
7649.01
7194.93
6750.76
6319.64
5904.43
5507.69
5131.61
4777.99
4448.23
4143.34
3863.92
3610.2
3382.06
3179.03
3000.41
2845.23
2712.32
2600.38
2507.99
2433.67
2375.89
2333.17
2304.01
2286.99
2280.79
2284.15
2295.93
2315.09
2340.7
2371.96
2408.17
2448.72
2493.13
2540.98
2591.95
2645.78
2702.28
2761.32
2822.78
2886.62
2952.77
3021.22
3091.93
3164.87
3239.99
3317.2
3396.39
3477.41
3560.07
3644.1
3729.2
3815.02
3901.15
3987.13
4072.47
4156.65
4239.12
4319.34
4396.76
4470.86
4541.14
4607.14
4668.46
4724.74
4775.7
4821.11
4860.82
4894.75
4922.87
4945.24
4961.97
4973.22
4979.21
4980.19
4976.46
4968.31
4956.06
4940.03
4920.51
4897.78
4872.08
4843.6
4812.5
4778.89
4742.85
4704.4
4663.56
4620.33
4574.71
4526.72
4476.43
4423.92
4369.35
4312.95
4255.02
4195.9
4136.03
4075.9
4016.02
3956.97
3899.31
3843.62
3790.47
3740.36
3693.79
3651.18
3612.87
3579.15
3550.22
3526.2
3507.14
3493.02
3483.72
3479.09
3478.89
3482.84
3490.6
3501.8
3516
3532.76
3551.6
3572
3593.45
3615.44
3637.43
3658.92
3679.43
3698.5
3715.74
3730.78
3743.34
3753.17
3760.11
3764.03
3764.85
3762.46
3756.68
3747.08
3732.72
3711.63
3679.86
3629.58
3545.6
3398.67
3132.74
2640.92
1720.85
312.257
637.196
15000
14999.8
14999.5
14999
14998.3
14997.1
14995.4
14992.9
14989.5
14984.8
14978.3
14969.7
14958.3
14943.4
14924.3
14899.9
14869.1
14830.9
14783.8
14726.4
14657.1
14574.2
14476.2
14361.4
14227.9
14074.3
13899.1
13701.1
13479.1
13232.4
12960.6
12663.6
12341.7
11995.8
11627
11236.8
10827.5
10401.3
9961.08
9509.86
9050.92
8587.72
8123.79
7662.67
7207.84
6762.65
6330.22
5913.42
5514.82
5136.62
4780.64
4448.32
4140.67
3858.34
3601.58
3370.3
3164.09
2982.25
2823.85
2687.76
2572.7
2477.27
2400.02
2339.44
2294.03
2262.33
2242.92
2234.46
2235.7
2245.49
2262.78
2286.63
2316.22
2350.83
2389.86
2432.78
2479.19
2528.75
2581.18
2636.31
2693.97
2754.08
2816.58
2881.42
2948.6
3018.08
3089.85
3163.88
3240.1
3318.42
3398.7
3480.77
3564.39
3649.26
3735.06
3821.38
3907.77
3993.76
4078.81
4162.39
4243.94
4322.9
4398.73
4470.92
4538.98
4602.47
4661.02
4714.3
4762.06
4804.1
4840.32
4870.65
4895.12
4913.81
4926.85
4934.44
4936.82
4934.26
4927.05
4915.51
4899.95
4880.67
4857.98
4832.11
4803.31
4771.74
4737.56
4700.86
4661.72
4620.18
4576.28
4530.06
4481.55
4430.84
4378.04
4323.33
4266.92
4209.13
4150.29
4090.83
4031.22
3971.97
3913.62
3856.73
3801.85
3749.53
3700.27
3654.54
3612.73
3575.2
3542.2
3513.94
3490.53
3472.02
3458.36
3449.45
3445.12
3445.14
3449.21
3456.99
3468.09
3482.09
3498.52
3516.91
3536.73
3557.48
3578.63
3599.67
3620.1
3639.47
3657.32
3673.28
3687.02
3698.27
3706.82
3712.52
3715.28
3715.03
3711.7
3705.11
3694.85
3680.01
3658.65
3626.87
3576.98
3494.01
3349.23
3087.59
2604.09
1696.87
312.416
634.833
15000
14999.8
14999.5
14999
14998.3
14997.1
14995.4
14993
14989.5
14984.8
14978.4
14969.8
14958.4
14943.5
14924.4
14900.1
14869.4
14831.3
14784.3
14727.1
14658
14575.4
14477.7
14363.2
14230.1
14077.1
13902.4
13705
13483.7
13237.8
12966.9
12670.8
12349.8
12004.8
11636.9
11247.7
10839.2
10413.8
9974.28
9523.57
9064.98
8601.92
8137.91
7676.46
7221.04
6774.98
6341.4
5923.18
5522.87
5142.69
4784.49
4449.71
4139.4
3854.23
3594.48
3360.1
3150.7
2965.62
2803.97
2664.63
2546.37
2447.8
2367.49
2303.95
2255.71
2221.3
2199.32
2188.43
2187.37
2194.99
2210.23
2232.14
2259.89
2292.75
2330.09
2371.4
2416.23
2464.25
2515.17
2568.8
2624.99
2683.65
2744.71
2808.15
2873.95
2942.1
3012.6
3085.44
3160.55
3237.88
3317.3
3398.65
3481.72
3566.24
3651.88
3738.26
3824.95
3911.46
3997.28
4081.87
4164.66
4245.09
4322.6
4396.65
4466.74
4532.41
4593.24
4648.88
4699.04
4743.5
4782.09
4814.74
4841.42
4862.19
4877.16
4886.5
4890.41
4889.15
4883.02
4872.31
4857.35
4838.44
4815.89
4789.96
4760.92
4728.96
4694.27
4656.98
4617.2
4575.01
4530.48
4483.67
4434.66
4383.56
4330.49
4275.64
4219.24
4161.59
4103.04
4044
3984.93
3926.31
3868.69
3812.58
3758.54
3707.07
3658.67
3613.78
3572.8
3536.05
3503.8
3476.22
3453.42
3435.44
3422.24
3413.71
3409.67
3409.87
3414.03
3421.79
3432.75
3446.5
3462.55
3480.42
3499.6
3519.58
3539.84
3559.87
3579.19
3597.35
3613.93
3628.57
3640.97
3650.87
3658.11
3662.55
3664.13
3662.81
3658.52
3651.11
3640.18
3624.85
3603.22
3571.44
3521.94
3440.05
3297.58
3040.71
2567.54
1692.03
312.746
630.708
15000
14999.8
14999.5
14999
14998.3
14997.1
14995.4
14993
14989.5
14984.8
14978.4
14969.8
14958.4
14943.6
14924.5
14900.2
14869.7
14831.6
14784.7
14727.6
14658.7
14576.3
14478.9
14364.7
14232
14079.4
13905.3
13708.5
13487.8
13242.7
12972.5
12677.2
12357.2
12013.1
11646.2
11257.9
10850.3
10425.7
9986.87
9536.76
9078.62
8615.82
8151.86
7690.23
7234.38
6787.62
6353.06
5933.58
5531.74
5149.76
4789.49
4452.4
4139.56
3851.66
3589.01
3351.6
3139.05
2950.76
2785.84
2643.23
2521.71
2419.92
2336.46
2269.86
2218.65
2181.4
2156.69
2143.2
2139.67
2144.94
2157.95
2177.76
2203.5
2234.45
2269.96
2309.5
2352.63
2398.98
2448.27
2500.3
2554.91
2612.01
2671.54
2733.47
2797.8
2864.53
2933.66
3005.19
3079.09
3155.3
3233.74
3314.25
3396.64
3480.66
3566.01
3652.31
3739.15
3826.06
3912.52
3998
4081.92
4163.73
4242.84
4318.7
4390.78
4458.6
4521.72
4579.74
4632.34
4679.26
4720.3
4755.35
4784.35
4807.32
4824.34
4835.54
4841.12
4841.31
4836.39
4826.66
4812.42
4794
4771.71
4745.84
4716.65
4684.4
4649.28
4611.48
4571.12
4528.33
4483.2
4435.85
4386.38
4334.9
4281.58
4226.6
4170.22
4112.73
4054.48
3995.86
3937.33
3879.36
3822.46
3767.15
3713.94
3663.33
3615.8
3571.77
3531.62
3495.67
3464.15
3437.25
3415.06
3397.61
3384.86
3376.68
3372.9
3373.26
3377.47
3385.16
3395.95
3409.38
3424.99
3442.29
3460.77
3479.92
3499.22
3518.19
3536.34
3553.25
3568.52
3581.8
3592.82
3601.36
3607.26
3610.44
3610.83
3608.42
3603.17
3594.93
3583.33
3567.51
3545.59
3513.8
3464.72
3383.99
3244.07
2992.61
2530.53
1669.26
313.187
627.095
15000
14999.8
14999.5
14999
14998.3
14997.1
14995.4
14993
14989.6
14984.8
14978.4
14969.8
14958.5
14943.7
14924.6
14900.3
14869.8
14831.8
14785
14728
14659.3
14577.1
14479.9
14365.9
14233.6
14081.4
13907.7
13711.4
13491.4
13246.9
12977.5
12683.1
12363.9
12020.7
11654.7
11267.3
10860.6
10436.9
9998.82
9549.37
9091.76
8629.33
8165.54
7703.87
7247.74
6800.45
6365.09
5944.53
5541.34
5157.73
4795.58
4456.35
4141.13
3850.65
3585.23
3344.88
3129.28
2937.83
2769.68
2623.81
2499.01
2393.97
2307.29
2237.53
2183.26
2143.03
2115.46
2099.22
2093.06
2095.83
2106.46
2123.99
2147.57
2176.45
2209.98
2247.61
2288.89
2333.45
2381
2431.31
2484.25
2539.69
2597.59
2657.92
2720.68
2785.88
2853.54
2923.66
2996.24
3071.23
3148.55
3228.09
3309.67
3393.06
3477.97
3564.05
3650.9
3738.06
3825.03
3911.26
3996.2
4079.27
4159.88
4237.47
4311.49
4381.42
4446.8
4507.19
4562.25
4611.67
4655.22
4692.74
4724.15
4749.42
4768.6
4781.79
4789.17
4790.94
4787.37
4778.74
4765.36
4747.56
4725.66
4699.95
4670.74
4638.3
4602.85
4564.6
4523.73
4480.4
4434.75
4386.89
4336.98
4285.16
4231.61
4176.53
4120.17
4062.85
4004.9
3946.71
3888.72
3831.39
3775.22
3720.7
3668.33
3618.58
3571.92
3528.74
3489.42
3454.25
3423.46
3397.23
3375.64
3358.7
3346.38
3338.53
3334.98
3335.46
3339.68
3347.26
3357.81
3370.88
3385.99
3402.67
3420.39
3438.65
3456.94
3474.79
3491.73
3507.34
3521.26
3533.16
3542.78
3549.94
3554.5
3556.4
3555.6
3552.1
3545.88
3536.82
3524.54
3508.21
3486
3454.2
3405.56
3326.04
3188.81
2943.05
2493.27
1662.2
313.424
626.776
15000
14999.8
14999.5
14999
14998.3
14997.1
14995.4
14993
14989.6
14984.8
14978.4
14969.8
14958.5
14943.7
14924.7
14900.4
14870
14832
14785.3
14728.4
14659.7
14577.7
14480.7
14367
14235
14083.1
13909.9
13714.1
13494.6
13250.8
12982.1
12688.4
12370
12027.7
11662.6
11276.1
10870.3
10447.4
10010.1
9561.42
9104.4
8642.42
8178.91
7717.33
7261.06
6813.39
6377.4
5955.95
5551.59
5166.55
4802.7
4461.51
4144.1
3851.2
3583.16
3340.02
3121.47
2926.95
2755.65
2606.55
2478.49
2370.19
2280.26
2207.3
2149.88
2106.58
2076.03
2056.92
2048
2048.12
2056.22
2071.32
2092.58
2119.24
2150.64
2186.23
2225.53
2268.17
2313.85
2362.35
2413.5
2467.19
2523.37
2582
2643.11
2706.69
2772.78
2841.4
2912.55
2986.2
3062.3
3140.74
3221.37
3303.99
3388.31
3474.02
3560.73
3647.99
3735.31
3822.17
3907.99
3992.19
4074.2
4153.42
4229.29
4301.27
4368.85
4431.6
4489.11
4541.05
4587.14
4627.19
4661.08
4688.73
4710.17
4725.47
4734.76
4738.24
4736.15
4728.76
4716.38
4699.33
4677.94
4652.53
4623.41
4590.87
4555.19
4516.59
4475.3
4431.5
4385.37
4337.06
4286.76
4234.62
4180.86
4125.69
4069.38
4012.22
3954.57
3896.81
3839.36
3782.67
3727.22
3673.48
3621.93
3573.04
3527.23
3484.9
3446.39
3411.99
3381.93
3356.34
3335.33
3318.89
3306.96
3299.41
3296.05
3296.61
3300.79
3308.21
3318.47
3331.12
3345.69
3361.67
3378.58
3395.9
3413.13
3429.82
3445.5
3459.79
3472.33
3482.82
3491.04
3496.81
3500.03
3500.65
3498.66
3494.07
3486.89
3476.99
3464.04
3447.2
3424.68
3392.87
3344.67
3266.39
3131.92
2891.72
2451.95
1632.15
313.126
630.46
15000
14999.8
14999.5
14999
14998.3
14997.1
14995.4
14993
14989.6
14984.8
14978.4
14969.9
14958.5
14943.8
14924.7
14900.5
14870.1
14832.2
14785.6
14728.7
14660.2
14578.3
14481.5
14368
14236.3
14084.7
13911.9
13716.5
13497.6
13254.3
12986.3
12693.3
12375.7
12034.2
11670
11284.4
10879.4
10457.4
10021
9572.97
9116.59
8655.13
8191.99
7730.59
7274.31
6826.4
6389.94
5967.77
5562.43
5176.15
4810.79
4467.84
4148.43
3853.29
3582.81
3337.02
3115.67
2918.2
2743.84
2591.6
2460.33
2348.79
2255.61
2179.42
2118.81
2072.38
2038.77
2016.69
2004.89
2002.23
2007.65
2020.19
2038.99
2063.29
2092.42
2125.83
2163.02
2203.62
2247.33
2293.89
2343.15
2395
2449.36
2506.22
2565.58
2627.46
2691.89
2758.91
2828.53
2900.73
2975.49
3052.71
3132.27
3213.98
3297.58
3382.77
3469.18
3556.39
3643.92
3731.23
3817.79
3903
3986.27
4067.01
4144.62
4218.57
4288.31
4353.36
4413.3
4467.74
4516.4
4559.01
4595.42
4625.54
4649.32
4666.81
4678.13
4683.44
4682.95
4676.93
4665.67
4649.51
4628.76
4603.76
4574.85
4542.34
4506.53
4467.68
4426.04
4381.85
4335.3
4286.6
4235.95
4183.54
4129.59
4074.34
4018.08
3961.1