<?xml version="1.0"?>
<VTKFile type="ImageData" version="0.1" byte_order="LittleEndian">
  <ImageData Origin="0 0 0" Spacing="1e-05 1e-05 1e-05" WholeExtent="0 191 0 191 0 0">
    <Piece Extent="0 191 0 191 0 0">
      <CellData Scalars="T">
        <DataArray type="Float32" Name="T" format="ascii" NumberOfComponents="1">
570.852
15000
15000
15000
15000
15000
15000
15000
15000
15000
15000
15000
15000
15000
15000
15000
15000
15000
15000
15000
15000
14999.9
14999.9
14999.9
14999.9
14999.8
14999.8
14999.7
14999.6
14999.5
14999.3
14999.1
14998.9
14998.6
14998.2
14997.7
14997
14996.3
14995.3
14994.2
14992.8
14991
14988.9
14986.4
14983.4
14979.7
14975.3
14970.1
14963.9
14956.7
14948.1
14938
14926.3
14912.7
14896.8
14878.6
14857.6
14833.5
14806.1
14774.8
14739.4
14699.4
14654.5
14604.1
14547.8
14485.1
14415.6
14338.9
14254.4
14161.7
14060.4
13950.1
13830.3
13700.8
13561.3
13411.4
13251.1
13080.2
12898.5
12706.2
12503.3
12290
12066.4
11833.1
11590.3
11338.6
11078.5
10810.8
10536.1
10255.3
9969.17
9678.72
9384.91
9088.74
8791.25
8493.5
8196.56
7901.49
7609.36
7321.19
7037.99
6760.71
6490.26
6227.51
5973.23
5728.15
5492.91
5268.08
5054.14
4851.5
4660.49
4481.33
4314.19
4159.16
4016.24
3885.38
3766.44
3659.24
3563.54
3479.06
3405.46
3342.37
3289.4
3246.11
3212.08
3186.82
3169.89
3160.78
3159.04
3164.18
3175.72
3193.19
3216.14
3244.12
3276.68
3313.39
3353.84
3397.63
3444.36
3493.66
3545.15
3598.5
3653.34
3709.36
3766.24
3823.66
3881.34
3938.98
3996.31
4053.06
4108.99
4163.84
4217.4
4269.43
4319.74
4368.14
4414.43
4458.46
4500.06
4539.11
4575.48
4609.06
4639.75
4667.47
4692.17
4713.78
4732.28
4747.64
4759.86
4768.93
4774.9
4777.77
4777.6
4774.45
4768.37
4759.44
4747.71
4733.24
4716.04
4696.04
4673
4646.35
4614.86
4576.07
4525.04
4452.08
4338.2
4146
3801.13
3152.41
1878.22
324.512
1561.3
15000
15000
15000
15000
15000
15000
15000
15000
15000
15000
15000
15000
15000
15000
15000
15000
15000
15000
15000
15000
14999.9
14999.9
14999.9
14999.9
14999.8
14999.8
14999.7
14999.6
14999.5
14999.3
14999.1
14998.9
14998.6
14998.2
14997.7
14997
14996.3
14995.3
14994.2
14992.8
14991
14988.9
14986.4
14983.4
14979.7
14975.3
14970.1
14964
14956.7
14948.1
14938
14926.3
14912.7
14896.9
14878.6
14857.6
14833.6
14806.1
14774.9
14739.5
14699.5
14654.5
14604.1
14547.8
14485.2
14415.7
14339
14254.5
14161.8
14060.6
13950.2
13830.5
13701
13561.5
13411.7
13251.4
13080.4
12898.8
12706.5
12503.6
12290.3
12066.8
11833.4
11590.7
11338.9
11078.9
10811.1
10536.4
10255.6
9969.48
9679.02
9385.18
9088.98
8791.45
8493.66
8196.67
7901.56
7609.37
7321.14
7037.86
6760.51
6489.99
6227.15
5972.78
5727.6
5492.27
5267.33
5053.29
4850.54
4659.41
4480.14
4312.89
4157.74
4014.7
3883.71
3764.65
3657.33
3561.51
3476.9
3403.18
3339.97
3286.88
3243.48
3209.33
3183.97
3166.92
3157.71
3155.87
3160.9
3172.35
3189.73
3212.6
3240.49
3272.97
3309.61
3349.99
3393.72
3440.39
3489.63
3541.08
3594.38
3649.19
3705.19
3762.04
3819.45
3877.11
3934.74
3992.07
4048.83
4104.77
4159.64
4213.22
4265.28
4315.62
4364.05
4410.39
4454.46
4496.11
4535.21
4571.63
4605.26
4636
4663.78
4688.53
4710.2
4728.76
4744.17
4756.44
4765.58
4771.59
4774.51
4774.39
4771.29
4765.25
4756.36
4744.67
4730.23
4713.07
4693.1
4670.09
4643.48
4612.05
4573.35
4522.5
4449.99
4337.32
4148.78
3815.91
3210.02
2099.85
392.568
1651.26
15000
15000
15000
15000
15000
15000
15000
15000
15000
15000
15000
15000
15000
15000
15000
15000
15000
15000
15000
15000
14999.9
14999.9
14999.9
14999.9
14999.8
14999.8
14999.7
14999.6
14999.5
14999.3
14999.1
14998.9
14998.6
14998.2
14997.7
14997
14996.3
14995.3
14994.2
14992.8
14991
14988.9
14986.4
14983.4
14979.7
14975.3
14970.1
14964
14956.7
14948.1
14938.1
14926.4
14912.7
14896.9
14878.7
14857.7
14833.6
14806.2
14775
14739.6
14699.6
14654.7
14604.3
14548
14485.4
14416
14339.2
14254.8
14162.1
14060.9
13950.6
13830.9
13701.5
13562
13412.2
13251.9
13081
12899.4
12707.1
12504.2
12290.9
12067.5
11834.1
11591.4
11339.6
11079.6
10811.8
10537.1
10256.3
9970.11
9679.61
9385.72
9089.46
8791.86
8493.99
8196.91
7901.7
7609.39
7321.03
7037.62
6760.12
6489.44
6226.44
5971.89
5726.53
5491
5265.86
5051.6
4848.64
4657.29
4477.78
4310.3
4154.91
4011.63
3880.4
3761.09
3653.53
3557.46
3472.62
3398.65
3335.21
3281.88
3238.25
3203.87
3178.28
3161.02
3151.6
3149.55
3154.39
3165.64
3182.84
3205.53
3233.26
3265.58
3302.07
3342.32
3385.91
3432.47
3481.61
3532.97
3586.18
3640.93
3696.86
3753.66
3811.03
3868.67
3926.3
3983.63
4040.4
4096.36
4151.26
4204.88
4257
4307.4
4355.9
4402.32
4446.47
4488.22
4527.42
4563.94
4597.67
4628.53
4656.42
4681.28
4703.06
4721.73
4737.25
4749.63
4758.87
4764.98
4768.01
4767.98
4764.96
4759.02
4750.2
4738.59
4724.23
4707.13
4687.23
4664.29
4637.76
4606.42
4567.87
4517.31
4445.42
4334.21
4149.18
3824.76
3237.35
2154.44
388.605
1671.11
15000
15000
15000
15000
15000
15000
15000
15000
15000
15000
15000
15000
15000
15000
15000
15000
15000
15000
15000
15000
14999.9
14999.9
14999.9
14999.9
14999.8
14999.8
14999.7
14999.6
14999.5
14999.3
14999.1
14998.9
14998.6
14998.2
14997.7
14997
14996.3
14995.3
14994.2
14992.8
14991
14989
14986.4
14983.4
14979.7
14975.4
14970.2
14964
14956.7
14948.2
14938.1
14926.4
14912.8
14897
14878.8
14857.8
14833.8
14806.3
14775.1
14739.8
14699.8
14654.9
14604.5
14548.3
14485.7
14416.3
14339.6
14255.2
14162.6
14061.4
13951.1
13831.5
13702.1
13562.6
13412.9
13252.7
13081.8
12900.3
12708
12505.2
12291.9
12068.5
11835.2
11592.4
11340.7
11080.6
10812.9
10538.1
10257.2
9971.06
9680.5
9386.54
9090.19
8792.48
8494.49
8197.28
7901.91
7609.43
7320.89
7037.28
6759.56
6488.65
6225.39
5970.58
5724.94
5489.11
5263.67
5049.1
4845.81
4654.13
4474.28
4306.45
4150.7
4007.06
3875.47
3755.8
3647.87
3551.45
3466.23
3391.91
3328.11
3274.43
3230.45
3195.73
3169.81
3152.22
3142.48
3140.13
3144.67
3155.64
3172.57
3194.99
3222.47
3254.56
3290.83
3330.87
3374.28
3420.66
3469.64
3520.86
3573.95
3628.58
3684.43
3741.16
3798.48
3856.08
3913.68
3971.01
4027.8
4083.79
4138.75
4192.43
4244.62
4295.12
4343.73
4390.25
4434.54
4476.42
4515.76
4552.44
4586.33
4617.35
4645.41
4670.43
4692.38
4711.21
4726.9
4739.44
4748.84
4755.1
4758.27
4758.39
4755.51
4749.69
4741
4729.5
4715.25
4698.25
4678.45
4655.62
4629.19
4597.98
4559.62
4509.37
4438.07
4328.04
4145.4
3825.48
3245.4
2172.69
386.303
1670.04
15000
15000
15000
15000
15000
15000
15000
15000
15000
15000
15000
15000
15000
15000
15000
15000
15000
15000
15000
15000
14999.9
14999.9
14999.9
14999.9
14999.8
14999.8
14999.7
14999.6
14999.5
14999.3
14999.1
14998.9
14998.6
14998.2
14997.7
14997.1
14996.3
14995.3
14994.2
14992.8
14991.1
14989
14986.4
14983.4
14979.7
14975.4
14970.2
14964
14956.8
14948.2
14938.2
14926.5
14912.9
14897.1
14878.9
14857.9
14833.9
14806.5
14775.3
14740
14700.1
14655.2
14604.9
14548.7
14486.1
14416.7
14340.1
14255.8
14163.2
14062
13951.9
13832.3
13702.9
13563.5
13413.9
13253.7
13082.9
12901.4
12709.2
12506.4
12293.2
12069.8
11836.5
11593.8
11342.1
11082
10814.3
10539.5
10258.6
9972.32
9681.68
9387.62
9091.15
8793.32
8495.17
8197.77
7902.2
7609.51
7320.72
7036.84
6758.83
6487.61
6224.02
5968.86
5722.86
5486.65
5260.81
5045.82
4842.1
4649.97
4469.68
4301.38
4145.17
4001.06
3868.99
3748.83
3640.42
3543.51
3457.82
3383.02
3318.74
3264.6
3220.16
3184.99
3158.63
3140.6
3130.45
3127.68
3131.83
3142.42
3158.99
3181.07
3208.21
3239.99
3275.97
3315.73
3358.89
3405.03
3453.8
3504.83
3557.75
3612.24
3667.97
3724.6
3781.84
3839.4
3896.97
3954.3
4011.1
4067.14
4122.15
4175.92
4228.22
4278.83
4327.58
4374.26
4418.71
4460.77
4500.31
4537.18
4571.28
4602.51
4630.79
4656.03
4678.2
4697.25
4713.16
4725.91
4735.52
4741.99
4745.35
4745.66
4742.95
4737.3
4728.77
4717.43
4703.32
4686.47
4666.8
4644.09
4617.79
4586.75
4548.58
4498.63
4427.83
4318.69
4137.59
3820.24
3244.29
2179.51
383.845
1670.78
15000
15000
15000
15000
15000
15000
15000
15000
15000
15000
15000
15000
15000
15000
15000
15000
15000
15000
15000
15000
14999.9
14999.9
14999.9
14999.9
14999.8
14999.8
14999.7
14999.6
14999.5
14999.3
14999.1
14998.9
14998.6
14998.2
14997.7
14997.1
14996.3
14995.4
14994.2
14992.8
14991.1
14989
14986.5
14983.4
14979.8
14975.4
14970.2
14964.1
14956.8
14948.3
14938.3
14926.6
14913
14897.2
14879
14858.1
14834.1
14806.7
14775.5
14740.2
14700.4
14655.5
14605.3
14549.1
14486.6
14417.3
14340.7
14256.4
14163.9
14062.9
13952.7
13833.2
13704
13564.7
13415.1
13255
13084.2
12902.8
12710.7
12508
12294.8
12071.5
11838.2
11595.5
11343.9
11083.8
10816
10541.2
10260.2
9973.89
9683.16
9388.98
9092.37
8794.37
8496.02
8198.41
7902.59
7609.62
7320.53
7036.33
6757.97
6486.36
6222.37
5966.78
5720.32
5483.64
5257.3
5041.8
4837.55
4644.88
4464.03
4295.16
4138.37
3993.67
3861.01
3740.26
3631.25
3533.74
3447.46
3372.06
3307.2
3252.48
3207.47
3171.74
3144.82
3126.27
3115.59
3112.32
3115.97
3126.09
3142.2
3163.85
3190.58
3221.97
3257.58
3297
3339.84
3385.69
3434.19
3484.98
3537.7
3592
3647.57
3704.08
3761.23
3818.72
3876.25
3933.57
3990.39
4046.47
4101.56
4155.43
4207.85
4258.62
4307.52
4354.39
4399.05
4441.33
4481.1
4518.22
4552.58
4584.07
4612.62
4638.14
4660.58
4679.9
4696.07
4709.09
4718.95
4725.67
4729.28
4729.82
4727.34
4721.9
4713.57
4702.42
4688.49
4671.81
4652.3
4629.75
4603.62
4572.75
4534.79
4485.13
4414.75
4306.27
4126.19
3810.1
3233.86
2157.61
381.828
1684.86
15000
15000
15000
15000
15000
15000
15000
15000
15000
15000
15000
15000
15000
15000
15000
15000
15000
15000
15000
15000
14999.9
14999.9
14999.9
14999.9
14999.8
14999.8
14999.7
14999.6
14999.5
14999.3
14999.1
14998.9
14998.6
14998.2
14997.7
14997.1
14996.3
14995.4
14994.2
14992.8
14991.1
14989
14986.5
14983.4
14979.8
14975.4
14970.3
14964.1
14956.9
14948.3
14938.3
14926.7
14913.1
14897.3
14879.2
14858.3
14834.3
14806.9
14775.8
14740.6
14700.7
14655.9
14605.7
14549.6
14487.2
14418
14341.5
14257.2
14164.8
14063.8
13953.8
13834.4
13705.2
13566
13416.5
13256.5
13085.8
12904.5
12712.5
12509.9
12296.8
12073.4
11840.3
11597.6
11345.9
11085.9
10818.1
10543.2
10262.2
9975.77
9684.93
9390.61
9093.84
8795.64
8497.07
8199.2
7903.09
7609.8
7320.35
7035.76
6756.98
6484.93
6220.46
5964.37
5717.37
5480.13
5253.21
5037.1
4832.23
4638.91
4457.39
4287.85
4130.38
3984.98
3851.62
3730.16
3620.45
3522.23
3435.24
3359.14
3293.58
3238.17
3192.48
3156.08
3128.52
3109.32
3098.02
3094.14
3097.21
3106.77
3122.34
3143.46
3169.71
3200.62
3235.79
3274.8
3317.26
3362.76
3410.94
3461.44
3513.9
3567.98
3623.36
3679.72
3736.75
3794.15
3851.64
3908.94
3965.78
4021.91
4077.08
4131.06
4183.63
4234.56
4283.66
4330.75
4375.65
4418.19
4458.23
4495.64
4530.3
4562.11
4590.96
4616.81
4639.57
4659.21
4675.71
4689.04
4699.2
4706.22
4710.12
4710.93
4708.72
4703.53
4695.44
4684.52
4670.81
4654.32
4635.01
4612.65
4586.71
4556.03
4518.3
4468.91
4398.93
4291.02
4111.85
3797.27
3224.14
2158.27
381.24
1679.21
15000
15000
15000
15000
15000
15000
15000
15000
15000
15000
15000
15000
15000
15000
15000
15000
15000
15000
15000
15000
14999.9
14999.9
14999.9
14999.9
14999.8
14999.8
14999.7
14999.6
14999.5
14999.3
14999.1
14998.9
14998.6
14998.2
14997.7
14997.1
14996.3
14995.4
14994.2
14992.8
14991.1
14989
14986.5
14983.5
14979.8
14975.5
14970.3
14964.2
14956.9
14948.4
14938.4
14926.8
14913.2
14897.5
14879.3
14858.5
14834.5
14807.2
14776.2
14740.9
14701.2
14656.4
14606.3
14550.2
14487.9
14418.7
14342.3
14258.2
14165.8
14064.9
13955
13835.7
13706.6
13567.5
13418.1
13258.2
13087.7
12906.5
12714.5
12512
12299
12075.7
11842.6
11600
11348.3
11088.3
10820.5
10545.6
10264.5
9977.96
9686.99
9392.52
9095.56
8797.14
8498.31
8200.15
7903.71
7610.05
7320.2
7035.17
6755.92
6483.35
6218.33
5961.66
5714.06
5476.17
5248.58
5031.78
4826.19
4632.13
4449.86
4279.54
4121.28
3975.09
3840.91
3718.65
3608.12
3509.08
3421.28
3344.37
3278.01
3221.8
3175.33
3138.16
3109.84
3089.9
3077.88
3073.3
3075.7
3084.6
3099.53
3120.06
3145.73
3176.1
3210.76
3249.29
3291.29
3336.38
3384.19
3434.35
3486.5
3540.33
3595.48
3651.66
3708.54
3765.84
3823.26
3880.54
3937.39
3993.57
4048.83
4102.94
4155.66
4206.78
4256.1
4303.43
4348.6
4391.44
4431.79
4469.54
4504.54
4536.69
4565.92
4592.12
4615.26
4635.27
4652.13
4665.82
4676.34
4683.7
4687.93
4689.06
4687.16
4682.26
4674.45
4663.79
4650.33
4634.08
4615
4592.85
4567.12
4536.66
4499.17
4450.08
4380.48
4273.18
4095.04
3782.52
3214.31
2160.72
382.07
1673.9
15000
15000
15000
15000
15000
15000
15000
15000
15000
15000
15000
15000
15000
15000
15000
15000
15000
15000
15000
15000
14999.9
14999.9
14999.9
14999.9
14999.8
14999.8
14999.7
14999.6
14999.5
14999.3
14999.1
14998.9
14998.6
14998.2
14997.7
14997.1
14996.3
14995.4
14994.2
14992.8
14991.1
14989
14986.5
14983.5
14979.9
14975.5
14970.4
14964.2
14957
14948.5
14938.5
14926.9
14913.4
14897.7
14879.6
14858.7
14834.8
14807.5
14776.5
14741.4
14701.6
14657
14606.9
14550.9
14488.6
14419.6
14343.2
14259.2
14167
14066.2
13956.4
13837.2
13708.2
13569.2
13420
13260.2
13089.8
12908.7
12716.8
12514.4
12301.5
12078.3
11845.2
11602.7
11351.1
11091
10823.2
10548.3
10267.1
9980.46
9689.35
9394.71
9097.54
8798.88
8499.76
8201.28
7904.47
7610.4
7320.11
7034.58
6754.8
6481.66
6216.04
5958.71
5710.43
5471.82
5243.49
5025.91
4819.51
4624.63
4441.5
4270.32
4111.17
3964.08
3829.01
3705.83
3594.38
3494.43
3405.7
3327.88
3260.61
3203.51
3156.15
3118.11
3088.94
3068.16
3055.33
3049.96
3051.58
3059.74
3073.96
3093.8
3118.82
3148.57
3182.64
3220.62
3262.11
3306.73
3354.1
3403.87
3455.68
3509.2
3564.09
3620.05
3676.76
3733.93
3791.27
3848.51
3905.37
3961.6
4016.95
4071.18
4124.07
4175.4
4224.96
4272.56
4318.03
4361.19
4401.89
4440
4475.38
4507.94
4537.56
4564.18
4587.73
4608.15
4625.42
4639.52
4650.44
4658.18
4662.79
4664.29
4662.73
4658.17
4650.67
4640.31
4627.13
4611.15
4592.32
4570.42
4544.93
4514.72
4477.49
4428.71
4359.54
4252.88
4075.86
3765.29
3199.52
2141.2
381.662
1671.29
15000
15000
15000
15000
15000
15000
15000
15000
15000
15000
15000
15000
15000
15000
15000
15000
15000
15000
15000
15000
14999.9
14999.9
14999.9
14999.9
14999.8
14999.8
14999.7
14999.6
14999.5
14999.3
14999.1
14998.9
14998.6
14998.2
14997.7
14997.1
14996.3
14995.4
14994.2
14992.8
14991.1
14989.1
14986.6
14983.5
14979.9
14975.6
14970.4
14964.3
14957.1
14948.6
14938.7
14927
14913.5
14897.9
14879.8
14859
14835.1
14807.9
14776.9
14741.8
14702.2
14657.6
14607.5
14551.7
14489.5
14420.5
14344.3
14260.3
14168.3
14067.6
13957.9
13838.8
13710
13571.2
13422
13262.4
13092.1
12911.1
12719.4
12517.1
12304.3
12081.2
11848.2
11605.7
11354.1
11094.1
10826.2
10551.2
10270
9983.26
9692.01
9397.19
9099.79
8800.86
8501.44
8202.59
7905.39
7610.88
7320.09
7034.03
6753.66
6479.9
6213.61
5955.58
5706.54
5467.15
5237.99
5019.56
4812.28
4616.48
4432.43
4260.29
4100.17
3952.09
3816.01
3691.82
3579.36
3478.39
3388.65
3309.82
3241.55
3183.45
3135.12
3096.11
3065.98
3044.28
3030.54
3024.28
3025.05
3032.38
3045.8
3064.88
3089.16
3118.22
3151.63
3188.99
3229.91
3273.99
3320.87
3370.19
3421.61
3474.77
3529.37
3585.07
3641.58
3698.6
3755.84
3813.02
3869.88
3926.15
3981.59
4035.96
4089.02
4140.57
4190.38
4238.28
4284.06
4327.58
4368.66
4407.16
4442.96
4475.95
4506.01
4533.08
4557.08
4577.96
4595.69
4610.23
4621.59
4629.77
4634.79
4636.69
4635.51
4631.32
4624.18
4614.15
4601.29
4585.61
4567.06
4545.44
4520.21
4490.27
4453.33
4404.89
4336.19
4230.27
4054.58
3746.83
3188.23
2152.48
383.328
1691.21
15000
15000
15000
15000
15000
15000
15000
15000
15000
15000
15000
15000
15000
15000
15000
15000
15000
15000
15000
15000
14999.9
14999.9
14999.9
14999.9
14999.8
14999.8
14999.7
14999.6
14999.5
14999.3
14999.1
14998.9
14998.6
14998.2
14997.7
14997.1
14996.3
14995.4
14994.3
14992.9
14991.2
14989.1
14986.6
14983.6
14980
14975.6
14970.5
14964.4
14957.2
14948.7
14938.8
14927.2
14913.7
14898.1
14880
14859.3
14835.5
14808.3
14777.4
14742.3
14702.7
14658.2
14608.3
14552.5
14490.4
14421.5
14345.4
14261.6
14169.6
14069.1
13959.5
13840.6
13711.9
13573.2
13424.2
13264.8
13094.6
12913.8
12722.2
12520
12307.3
12084.3
11851.4
11609
11357.4
11097.4
10829.5
10554.5
10273.2
9986.36
9694.96
9399.94
9102.31
8803.09
8503.34
8204.11
7906.48
7611.49
7320.18
7033.54
6752.55
6478.12
6211.1
5952.31
5702.46
5462.22
5232.18
5012.82
4804.58
4607.8
4422.73
4249.55
4088.37
3939.22
3802.05
3676.77
3563.2
3461.13
3370.28
3290.35
3220.98
3161.8
3112.39
3072.32
3041.15
3018.43
3003.69
2996.47
2996.29
3002.71
3015.25
3033.48
3056.95
3085.24
3117.93
3154.6
3194.88
3238.36
3284.7
3333.52
3384.49
3437.26
3491.51
3546.93
3603.2
3660.04
3717.15
3774.26
3831.1
3887.41
3942.93
3997.43
4050.67
4102.44
4152.52
4200.72
4246.85
4290.73
4332.22
4371.15
4407.4
4440.85
4471.39
4498.95
4523.44
4544.81
4563.03
4578.06
4589.89
4598.54
4604.02
4606.36
4605.6
4601.82
4595.06
4585.4
4572.89
4557.54
4539.31
4517.99
4493.06
4463.41
4426.79
4378.73
4310.53
4205.41
4031.14
3726.24
3174.37
2158.52
382.361
1691.02
15000
15000
15000
15000
15000
15000
15000
15000
15000
15000
15000
15000
15000
15000
15000
15000
15000
15000
15000
15000
14999.9
14999.9
14999.9
14999.9
14999.8
14999.8
14999.7
14999.6
14999.5
14999.3
14999.1
14998.9
14998.6
14998.2
14997.7
14997.1
14996.3
14995.4
14994.3
14992.9
14991.2
14989.1
14986.6
14983.6
14980
14975.7
14970.6
14964.5
14957.3
14948.9
14938.9
14927.4
14913.9
14898.3
14880.3
14859.6
14835.8
14808.7
14777.9
14742.9
14703.4
14658.9
14609.1
14553.4
14491.4
14422.6
14346.7
14263
14171.1
14070.7
13961.3
13842.5
13714
13575.5
13426.7
13267.3
13097.4
12916.7
12725.3
12523.2
12310.6
12087.8
11854.9
11612.5
11361.1
11101.1
10833.2
10558.1
10276.7
9989.76
9698.2
9402.98
9105.1
8805.58
8505.48
8205.86
7907.77
7612.28
7320.41
7033.16
6751.5
6476.35
6208.57
5948.96
5698.25
5457.1
5226.11
5005.77
4796.5
4598.66
4412.5
4238.22
4075.9
3925.6
3787.26
3660.8
3546.05
3442.78
3350.75
3269.63
3199.08
3138.72
3088.15
3046.94
3014.64
2990.82
2975
2966.72
2965.52
2970.94
2982.53
2999.83
3022.42
3049.87
3081.75
3117.67
3157.24
3200.07
3245.8
3294.07
3344.54
3396.87
3450.73
3505.82
3561.83
3618.45
3675.41
3732.43
3789.23
3845.55
3901.15
3955.78
4009.2
4061.19
4111.55
4160.06
4206.55
4250.82
4292.73
4332.11
4368.83
4402.77
4433.83
4461.9
4486.92
4508.82
4527.57
4543.12
4555.47
4564.62
4570.59
4573.4
4573.11
4569.76
4563.43
4554.17
4542.03
4527.05
4509.16
4488.17
4463.56
4434.23
4397.95
4350.3
4282.63
4178.28
4005.18
3701.73
3149.11
2113.23
375.339
1699.18
15000
15000
15000
15000
15000
15000
15000
15000
15000
15000
15000
15000
15000
15000
15000
15000
15000
15000
15000
15000
14999.9
14999.9
14999.9
14999.9
14999.8
14999.8
14999.7
14999.6
14999.5
14999.3
14999.1
14998.9
14998.6
14998.2
14997.7
14997.1
14996.4
14995.4
14994.3
14992.9
14991.2
14989.1
14986.7
14983.7
14980.1
14975.8
14970.6
14964.6
14957.4
14949
14939.1
14927.6
14914.1
14898.6
14880.6
14859.9
14836.2
14809.2
14778.4
14743.5
14704
14659.7
14609.9
14554.3
14492.5
14423.8
14348
14264.4
14172.7
14072.5
13963.2
13844.6
13716.3
13577.9
13429.3
13270.1
13100.3
12919.8
12728.5
12526.6
12314.2
12091.4
11858.7
11616.4
11365
11105
10837.1
10562
10280.5
9993.47
9701.74
9406.31
9108.16
8808.34
8507.87
8207.83
7909.28
7613.25
7320.79
7032.91
6750.55
6474.65
6206.06
5945.59
5693.97
5451.87
5219.87
4998.48
4788.14
4589.18
4401.87
4226.4
4062.89
3911.36
3771.78
3644.07
3528.05
3423.52
3330.21
3247.83
3176.01
3114.4
3062.59
3020.15
2986.65
2961.64
2944.66
2935.24
2932.94
2937.29
2947.84
2964.15
2985.79
3012.32
3043.34
3078.44
3117.24
3159.35
3204.42
3252.08
3302
3353.83
3407.27
3461.98
3517.68
3574.06
3630.84
3687.73
3744.47
3800.8
3856.45
3911.2
3964.79
4017.02
4067.65
4116.48
4163.33
4208.01
4250.35
4290.2
4327.42
4361.88
4393.47
4422.09
4447.66
4470.12
4489.42
4505.53
4518.43
4528.12
4534.61
4537.93
4538.13
4535.26
4529.37
4520.54
4508.82
4494.23
4476.71
4456.07
4431.81
4402.83
4366.93
4319.69
4252.56
4148.92
3976.75
3674.31
3122.44
2090.09
372.246
1692.48
15000
15000
15000
15000
15000
15000
15000
15000
15000
15000
15000
15000
15000
15000
15000
15000
15000
15000
15000
15000
14999.9
14999.9
14999.9
14999.9
14999.8
14999.8
14999.7
14999.6
14999.5
14999.3
14999.1
14998.9
14998.6
14998.2
14997.7
14997.1
14996.4
14995.4
14994.3
14992.9
14991.2
14989.2
14986.7
14983.7
14980.1
14975.8
14970.7
14964.7
14957.5
14949.1
14939.3
14927.8
14914.4
14898.8
14880.9
14860.3
14836.6
14809.6
14778.9
14744.1
14704.8
14660.5
14610.8
14555.4
14493.6
14425.1
14349.4
14266
14174.5
14074.4
13965.3
13846.9
13718.7
13580.5
13432
13273.1
13103.5
12923.1
12732
12530.3
12318
12095.4
11862.8
11620.5
11369.2
11109.2
10841.3
10566.2
10284.6
9997.46
9705.57
9409.92
9111.52
8811.37
8510.53
8210.06
7911.01
7614.44
7321.38
7032.82
6749.74
6473.05
6203.62
5942.25
5689.68
5446.58
5213.54
4991.06
4779.58
4579.45
4390.93
4214.23
4049.45
3896.63
3755.75
3626.71
3509.36
3403.49
3308.85
3225.12
3151.97
3089.03
3035.9
2992.16
2957.38
2931.11
2912.89
2902.27
2898.79
2901.99
2911.44
2926.68
2947.29
2972.84
3002.92
3037.14
3075.1
3116.44
3160.78
3207.78
3257.09
3308.39
3361.34
3415.65
3471
3527.09
3583.65
3640.4
3697.05
3753.36
3809.06
3863.91
3917.66
3970.1
4021.01
4070.17
4117.38
4162.47
4205.27
4245.6
4283.33
4318.32
4350.46
4379.65
4405.81
4428.85
4448.74
4465.43
4478.91
4489.17
4496.21
4500.07
4500.79
4498.42
4493.02
4484.65
4473.37
4459.19
4442.08
4421.82
4397.93
4369.33
4333.81
4287.02
4220.43
4117.51
3946.37
3645.47
3096.46
2075
370.42
1670.42
15000
15000
15000
15000
15000
15000
15000
15000
15000
15000
15000
15000
15000
15000
15000
15000
15000
15000
15000
15000
14999.9
14999.9
14999.9
14999.9
14999.8
14999.8
14999.7
14999.6
14999.5
14999.3
14999.1
14998.9
14998.6
14998.2
14997.7
14997.1
14996.4
14995.5
14994.3
14992.9
14991.3
14989.2
14986.7
14983.8
14980.2
14975.9
14970.8
14964.8
14957.7
14949.3
14939.4
14928
14914.6
14899.1
14881.2
14860.7
14837.1
14810.2
14779.5
14744.8
14705.5
14661.3
14611.8
14556.4
14494.8
14426.4
14350.9
14267.6
14176.3
14076.3
13967.5
13849.2
13721.2
13583.2
13435
13276.2
13106.8
12926.6
12735.7
12534.1
12322
12099.5
11867
11624.9
11373.6
11113.7
10845.9
10570.7
10289
10001.7
9709.69
9413.83
9115.15
8814.68
8513.46
8212.55
7913
7615.87
7322.17
7032.93
6749.1
6471.6
6201.3
5939.01
5685.46
5441.32
5207.19
4983.57
4770.92
4569.56
4379.79
4201.8
4035.7
3881.54
3739.3
3608.88
3490.14
3382.87
3286.82
3201.68
3127.13
3062.8
3008.29
2963.18
2927.04
2899.44
2879.91
2868.01
2863.29
2865.28
2873.55
2887.65
2907.17
2931.67
2960.75
2994.02
3031.09
3071.59
3115.15
3161.43
3210.09
3260.79
3313.22
3367.06
3422.02
3477.8
3534.11
3590.67
3647.21
3703.47
3759.19
3814.12
3868.03
3920.67
3971.84
4021.32
4068.9
4114.41
4157.65
4198.47
4236.73
4272.27
4304.98
4334.76
4361.51
4385.17
4405.67
4422.97
4437.05
4447.89
4455.52
4459.95
4461.22
4459.38
4454.49
4446.6
4435.79
4422.06
4405.36
4385.52
4362.02
4333.82
4298.72
4252.4
4186.37
4084.23
3914.21
3615.04
3068.14
2043.95
368.046
1667.51
15000
15000
15000
15000
15000
15000
15000
15000
15000
15000
15000
15000
15000
15000
15000
15000
15000
15000
15000
15000
14999.9
14999.9
14999.9
14999.9
14999.8
14999.8
14999.7
14999.6
14999.5
14999.3
14999.1
14998.9
14998.6
14998.2
14997.7
14997.1
14996.4
14995.5
14994.3
14993
14991.3
14989.2
14986.8
14983.8
14980.2
14976
14970.9
14964.9
14957.8
14949.4
14939.6
14928.2
14914.9
14899.4
14881.6
14861.1
14837.6
14810.7
14780.1
14745.5
14706.3
14662.2
14612.8
14557.6
14496.1
14427.9
14352.4
14269.4
14178.2
14078.4
13969.7
13851.7
13723.9
13586.1
13438.1
13279.5
13110.3
12930.3
12739.6
12538.2
12326.2
12103.9
11871.6
11629.6
11378.3
11118.5
10850.6
10575.5
10293.7
10006.3
9714.1
9418.03
9119.08
8818.29
8516.68
8215.32
7915.26
7617.55
7323.22
7033.27
6748.67
6470.34
6199.15
5935.9
5681.35
5436.14
5200.89
4976.11
4762.24
4559.63
4368.56
4189.23
4021.77
3866.22
3722.57
3590.72
3470.53
3361.81
3264.29
3177.7
3101.68
3035.89
2979.94
2933.39
2895.85
2866.85
2845.95
2832.71
2826.67
2827.38
2834.41
2847.32
2865.67
2889.06
2917.09
2949.35
2985.46
3025.06
3067.79
3113.29
3161.24
3211.29
3263.15
3316.49
3371.01
3426.42
3482.44
3538.78
3595.18
3651.36
3707.07
3762.07
3816.1
3868.94
3920.36
3970.14
4018.09
4064
4107.7
4149.02
4187.8
4223.9
4257.2
4287.58
4314.94
4339.22
4360.35
4378.28
4392.98
4404.45
4412.68
4417.7
4419.54
4418.26
4413.9
4406.53
4396.2
4382.94
4366.7
4347.28
4324.21
4296.43
4261.77
4215.94
4150.53
4049.23
3880.51
3583.61
3041.65
2030.33
367.485
1684.38
15000
15000
15000
15000
15000
15000
15000
15000
15000
15000
15000
15000
15000
15000
15000
15000
15000
15000
15000
15000
14999.9
14999.9
14999.9
14999.9
14999.8
14999.8
14999.7
14999.6
14999.5
14999.3
14999.1
14998.9
14998.6
14998.2
14997.7
14997.1
14996.4
14995.5
14994.4
14993
14991.3
14989.3
14986.8
14983.9
14980.3
14976.1
14971
14965
14957.9
14949.6
14939.8
14928.4
14915.1
14899.7
14882
14861.5
14838
14811.3
14780.8
14746.2
14707.1
14663.2
14613.9
14558.8
14497.4
14429.3
14354.1
14271.2
14180.2
14080.6
13972.1
13854.3
13726.7
13589.1
13441.3
13283
13113.9
12934.2
12743.7
12542.5
12330.7
12108.5
11876.3
11634.4
11383.3
11123.5
10855.7
10580.5
10298.7
10011.2
9718.81
9422.52
9123.3
8822.18
8520.18
8218.37
7917.79
7619.5
7324.52
7033.86
6748.48
6469.31
6197.21
5932.99
5677.4
5431.11
5194.72
4968.74
4753.62
4549.73
4357.33
4176.64
4007.78
3850.8
3705.69
3572.37
3450.69
3340.46
3241.44
3153.33
3075.8
3008.5
2951.05
2903.02
2864
2833.55
2811.22
2796.58
2789.17
2788.55
2794.27
2805.92
2823.06
2845.28
2872.18
2903.37
2938.47
2977.11
3018.95
3063.62
3110.8
3160.17
3211.39
3264.18
3318.22
3373.23
3428.91
3485
3541.21
3597.28
3652.96
3707.99
3762.13
3815.14
3866.79
3916.87
3965.16
4011.48
4055.62
4097.43
4136.74
4173.4
4207.28
4238.27
4266.27
4291.18
4312.95
4331.53
4346.87
4358.98
4367.83
4373.47
4375.91
4375.2
4371.39
4364.56
4354.75
4341.98
4326.2
4307.24
4284.62
4257.28
4223.09
4177.79
4113.05
4012.74
3845.68
3551.93
3016.39
2018.32
368.324
1667.34
15000
15000
15000
15000
15000
15000
15000
15000
15000
15000
15000
15000
15000
15000
15000
15000
15000
15000
15000
15000
14999.9
14999.9
14999.9
14999.9
14999.8
14999.8
14999.7
14999.6
14999.5
14999.3
14999.2
14998.9
14998.6
14998.2
14997.7
14997.2
14996.4
14995.5
14994.4
14993
14991.4
14989.3
14986.9
14983.9
14980.4
14976.2
14971.1
14965.1
14958.1
14949.8
14940
14928.7
14915.4
14900.1
14882.3
14861.9
14838.6
14811.8
14781.4
14747
14708
14664.2
14615
14560
14498.8
14430.9
14355.8
14273.1
14182.3
14082.9
13974.6
13857
13729.6
13592.3
13444.7
13286.6
13117.8
12938.3
12748
12547
12335.4
12113.4
11881.3
11639.6
11388.5
11128.8
10861
10585.8
10304
10016.3
9723.79
9427.29
9127.81
8826.36
8523.98
8221.71
7920.62
7621.74
7326.11
7034.73
6748.56
6468.54
6195.52
5930.32
5673.68
5426.29
5188.73
4961.54
4745.16
4539.95
4346.2
4164.11
3993.82
3835.38
3688.79
3553.95
3430.75
3318.98
3218.41
3128.74
3049.66
2980.81
2921.81
2872.25
2831.7
2799.75
2775.95
2759.85
2751.01
2749
2753.37
2763.7
2779.56
2800.56
2826.28
2856.35
2890.38
2928.02
2968.9
3012.69
3059.06
3107.67
3158.22
3210.4
3263.92
3318.47
3373.78
3429.57
3485.56
3541.49
3597.09
3652.13
3706.34
3759.49
3811.36
3861.71
3910.34
3957.04
4001.62
4043.92
4083.75
4120.97
4155.44
4187.04
4215.66
4241.22
4263.65
4282.88
4298.88
4311.63
4321.13
4327.39
4330.45
4330.33
4327.11
4320.83
4311.55
4299.29
4284.01
4265.52
4243.36
4216.49
4182.79
4138.06
4074.07
3974.89
3809.85
3520.2
2994.1
2020.61
370.313
1654.67
15000
15000
15000
15000
15000
15000
15000
15000
15000
15000
15000
15000
15000
15000
15000
15000
15000
15000
15000
15000
14999.9
14999.9
14999.9
14999.9
14999.8
14999.8
14999.7
14999.6
14999.5
14999.3
14999.2
14998.9
14998.6
14998.2
14997.8
14997.2
14996.4
14995.5
14994.4
14993
14991.4
14989.4
14986.9
14984
14980.5
14976.2
14971.2
14965.3
14958.2
14950
14940.3
14928.9
14915.7
14900.4
14882.8
14862.4
14839.1
14812.5
14782.1
14747.8
14708.9
14665.2
14616.1
14561.3
14500.3
14432.5
14357.6
14275.1
14184.4
14085.3
13977.2
13859.8
13732.7
13595.6
13448.2
13290.3
13121.8
12942.5
12752.4
12551.6
12340.2
12118.4
11886.5
11644.9
11394
11134.3
10866.6
10591.3
10309.5
10021.7
9729.06
9432.35
9132.61
8830.84
8528.07
8225.35
7923.74
7624.28
7327.99
7035.89
6748.93
6468.05
6194.1
5927.92
5670.23
5421.72
5182.99
4954.57
4736.91
4530.37
4335.25
4151.75
3980
3820.08
3671.98
3535.61
3410.85
3297.51
3195.36
3104.1
3023.43
2952.99
2892.4
2841.26
2799.16
2765.66
2740.34
2722.74
2712.43
2708.97
2711.94
2720.9
2735.44
2755.16
2779.65
2808.54
2841.45
2878.02
2917.91
2960.76
3006.26
3054.08
3103.9
3155.43
3208.37
3262.42
3317.31
3372.75
3428.48
3484.22
3539.73
3594.73
3648.98
3702.25
3754.3
3804.9
3853.84
3900.91
3945.92
3988.68
4029.02
4066.79
4101.85
4134.06
4163.32
4189.52
4212.61
4232.5
4249.17
4262.58
4272.73
4279.64
4283.32
4283.81
4281.18
4275.47
4266.75
4255.02
4240.25
4222.26
4200.58
4174.2
4141.02
4096.9
4033.71
3935.77
3772.91
3487.56
2970.57
2016.58
375.573
1651.33
15000
15000
15000
15000
15000
15000
15000
15000
15000
15000
15000
15000
15000
15000
15000
15000
15000
15000
15000
15000
14999.9
14999.9
14999.9
14999.9
14999.8
14999.8
14999.7
14999.6
14999.5
14999.3
14999.2
14998.9
14998.6
14998.2
14997.8
14997.2
14996.4
14995.5
14994.4
14993.1
14991.4
14989.4
14987
14984.1
14980.5
14976.3
14971.3
14965.4
14958.4
14950.2
14940.5
14929.2
14916
14900.8
14883.2
14862.9
14839.7
14813.1
14782.9
14748.6
14709.9
14666.3
14617.4
14562.7
14501.8
14434.2
14359.5
14277.1
14186.7
14087.8
13979.9
13862.7
13735.9
13599
13451.9
13294.2
13125.9
12946.9
12757.1
12556.5
12345.3
12123.7
11892
11650.5
11399.7
11140.1
10872.4
10597.2
10315.2
10027.4
9734.59
9437.69
9137.7
8835.6
8532.45
8229.29
7927.16
7627.12
7330.18
7037.36
6749.61
6467.87
6193
5925.82
5667.07
5417.44
5177.54
4947.88
4728.93
4521.06
4324.55
4139.63
3966.42
3805
3655.37
3517.45
3391.12
3276.19
3172.43
3079.56
2997.27
2925.21
2863.01
2810.26
2766.56
2731.48
2704.59
2685.45
2673.63
2668.7
2670.21
2677.76
2690.93
2709.32
2732.54
2760.2
2791.94
2827.4
2866.23
2908.1
2952.68
2999.65
3048.69
3099.52
3151.84
3205.34
3259.76
3314.82
3370.24
3425.76
3481.11
3536.04
3590.3
3643.65
3695.85
3746.68
3795.9
3843.32
3888.73
3931.94
3972.78
4011.09
4046.72
4079.53
4109.41
4136.27
4160
4180.56
4197.9
4211.98
4222.79
4230.35
4234.67
4235.79
4233.76
4228.64
4220.48
4209.29
4195.05
4177.57
4156.39
4130.52
4097.89
4054.4
3992.05
3895.37
3734.56
3452.43
2938.92
1980.62
374.716
1630.11
15000
15000
15000
15000
15000
15000
15000
15000
15000
15000
15000
15000
15000
15000
15000
15000
15000
15000
15000
15000
14999.9
14999.9
14999.9
14999.9
14999.8
14999.8
14999.7
14999.6
14999.5
14999.4
14999.2