<?xml version="1.0"?>
<VTKFile type="ImageData" version="0.1" byte_order="LittleEndian">
  <ImageData Origin="0 0 0" Spacing="1e-05 1e-05 1e-05" WholeExtent="0 191 0 191 0 0">
    <Piece Extent="0 191 0 191 0 0">
      <CellData Scalars="T">
        <DataArray type="Float32" Name="T" format="ascii" NumberOfComponents="1">
621.525
15000
15000
15000
15000
15000
15000
15000
15000
15000
15000
15000
15000
15000
15000
15000
15000
15000
15000
15000
15000
15000
15000
15000
15000
15000
15000
15000
15000
15000
15000
15000
14999.9
14999.9
14999.9
14999.9
14999.8
14999.8
14999.7
14999.6
14999.5
14999.4
14999.2
14999.1
14998.8
14998.5
14998.2
14997.7
14997.2
14996.5
14995.7
14994.8
14993.6
14992.3
14990.6
14988.7
14986.3
14983.6
14980.4
14976.5
14972.1
14966.8
14960.8
14953.7
14945.5
14936
14925.2
14912.7
14898.4
14882.2
14863.7
14842.8
14819.1
14792.5
14762.5
14729.1
14691.7
14650.1
14603.9
14552.9
14496.6
14434.7
14366.9
14292.8
14212
14124.2
14029.1
13926.4
13815.8
13697
13569.9
13434.2
13289.8
13136.5
12974.3
12803.2
12623.2
12434.5
12237.1
12031.2
11817.2
11595.4
11366.1
11129.9
10887.1
10638.3
10384.2
10125.4
9862.65
9596.57
9327.96
9057.63
8786.37
8515
8244.34
7975.21
7708.45
7444.84
7185.17
6930.21
6680.67
6437.24
6200.57
5971.26
5749.85
5536.86
5332.71
5137.8
4952.44
4776.91
4611.42
4456.12
4311.11
4176.42
4052.05
3937.93
3833.95
3739.98
3655.8
3581.21
3515.93
3459.68
3412.14
3372.98
3341.85
3318.36
3302.14
3292.81
3289.96
3293.19
3302.11
3316.3
3335.38
3358.95
3386.61
3417.99
3452.72
3490.42
3530.73
3573.31
3617.82
3663.93
3711.33
3759.69
3808.74
3858.18
3907.74
3957.16
4006.18
4054.57
4102.09
4148.54
4193.7
4237.38
4279.39
4319.55
4357.68
4393.58
4427.01
4457.63
4484.93
4508.02
4525.31
4533.79
4527.8
4496.52
4419.12
4255.28
3925.78
3271.07
1954.1
329.528
2176.1
15000
15000
15000
15000
15000
15000
15000
15000
15000
15000
15000
15000
15000
15000
15000
15000
15000
15000
15000
15000
15000
15000
15000
15000
15000
15000
15000
15000
15000
15000
15000
14999.9
14999.9
14999.9
14999.9
14999.8
14999.8
14999.7
14999.6
14999.5
14999.4
14999.2
14999.1
14998.8
14998.5
14998.2
14997.7
14997.2
14996.5
14995.7
14994.8
14993.6
14992.3
14990.6
14988.7
14986.3
14983.6
14980.4
14976.5
14972.1
14966.8
14960.8
14953.7
14945.5
14936.1
14925.2
14912.7
14898.5
14882.2
14863.7
14842.8
14819.1
14792.5
14762.6
14729.1
14691.7
14650.1
14604
14553
14496.7
14434.8
14367
14292.9
14212.1
14124.3
14029.3
13926.6
13816
13697.2
13570.1
13434.4
13290
13136.7
12974.5
12803.4
12623.5
12434.7
12237.3
12031.5
11817.5
11595.7
11366.4
11130.1
10887.3
10638.6
10384.5
10125.7
9862.85
9596.75
9328.13
9057.77
8786.47
8515.06
8244.36
7975.2
7708.39
7444.73
7185.01
6929.98
6680.38
6436.88
6200.14
5970.75
5749.27
5536.2
5331.97
5136.97
4951.52
4775.9
4610.32
4454.93
4309.81
4175.03
4050.55
3936.34
3832.26
3738.19
3653.91
3579.22
3513.84
3457.49
3409.86
3370.6
3339.37
3315.8
3299.49
3290.07
3287.14
3290.29
3299.13
3313.25
3332.25
3355.75
3383.36
3414.68
3449.35
3486.99
3527.26
3569.8
3614.27
3660.35
3707.72
3756.06
3805.09
3854.52
3904.07
3953.48
4002.5
4050.89
4098.42
4144.88
4190.05
4233.75
4275.78
4315.97
4354.13
4390.05
4423.51
4454.17
4481.52
4504.66
4522.02
4530.62
4524.87
4494.14
4418.22
4258.7
3943.06
3337.22
2208.19
431.472
2178.48
15000
15000
15000
15000
15000
15000
15000
15000
15000
15000
15000
15000
15000
15000
15000
15000
15000
15000
15000
15000
15000
15000
15000
15000
15000
15000
15000
15000
15000
15000
15000
14999.9
14999.9
14999.9
14999.9
14999.8
14999.8
14999.7
14999.6
14999.5
14999.4
14999.2
14999.1
14998.8
14998.5
14998.2
14997.7
14997.2
14996.5
14995.7
14994.8
14993.6
14992.3
14990.6
14988.7
14986.4
14983.6
14980.4
14976.6
14972.1
14966.9
14960.8
14953.7
14945.5
14936.1
14925.2
14912.8
14898.5
14882.3
14863.8
14842.8
14819.2
14792.6
14762.7
14729.2
14691.8
14650.3
14604.1
14553.1
14496.9
14435
14367.2
14293.1
14212.3
14124.6
14029.5
13926.9
13816.3
13697.6
13570.5
13434.8
13290.4
13137.1
12975
12803.9
12623.9
12435.2
12237.8
12032
11818
11596.2
11366.9
11130.6
10887.8
10639.1
10384.9
10126.1
9863.26
9597.12
9328.45
9058.04
8786.68
8515.2
8244.42
7975.17
7708.27
7444.5
7184.67
6929.53
6679.8
6436.17
6199.29
5969.76
5748.12
5534.89
5330.49
5135.32
4949.69
4773.89
4608.13
4452.54
4307.24
4172.25
4047.58
3933.17
3828.89
3734.62
3650.15
3575.25
3509.68
3453.14
3405.31
3365.87
3334.45
3310.69
3294.21
3284.61
3281.51
3284.5
3293.18
3307.16
3326.02
3349.39
3376.86
3408.07
3442.63
3480.17
3520.35
3562.8
3607.2
3653.21
3700.52
3748.82
3797.81
3847.2
3896.73
3946.13
3995.15
4043.55
4091.09
4137.57
4182.77
4226.51
4268.58
4308.82
4347.03
4383.02
4416.54
4447.27
4474.7
4497.94
4515.43
4524.24
4518.88
4488.97
4414.95
4260.02
3955.66
3376.19
2296.31
441.447
2161.54
15000
15000
15000
15000
15000
15000
15000
15000
15000
15000
15000
15000
15000
15000
15000
15000
15000
15000
15000
15000
15000
15000
15000
15000
15000
15000
15000
15000
15000
15000
15000
14999.9
14999.9
14999.9
14999.9
14999.8
14999.8
14999.7
14999.6
14999.5
14999.4
14999.2
14999.1
14998.8
14998.5
14998.2
14997.7
14997.2
14996.5
14995.7
14994.8
14993.6
14992.3
14990.6
14988.7
14986.4
14983.6
14980.4
14976.6
14972.1
14966.9
14960.8
14953.7
14945.6
14936.1
14925.3
14912.8
14898.6
14882.3
14863.9
14842.9
14819.3
14792.7
14762.8
14729.3
14692
14650.4
14604.3
14553.4
14497.1
14435.3
14367.5
14293.4
14212.7
14125
14029.9
13927.3
13816.8
13698.1
13571
13435.4
13291
13137.8
12975.6
12804.6
12624.7
12436
12238.6
12032.8
11818.8
11597
11367.7
11131.4
10888.6
10639.8
10385.7
10126.8
9863.88
9597.68
9328.94
9058.44
8786.99
8515.41
8244.52
7975.14
7708.09
7444.18
7184.19
6928.87
6678.95
6435.12
6198.03
5968.28
5746.41
5532.94
5328.29
5132.86
4946.98
4770.9
4604.86
4448.99
4303.4
4168.12
4043.16
3928.45
3823.88
3729.3
3644.53
3569.34
3503.48
3446.64
3398.53
3358.8
3327.1
3303.07
3286.33
3276.47
3273.12
3275.87
3284.32
3298.07
3316.73
3339.89
3367.18
3398.2
3432.6
3469.99
3510.02
3552.35
3596.64
3642.55
3689.77
3738
3786.93
3836.28
3885.78
3935.16
3984.17
4032.58
4080.14
4126.65
4171.9
4215.68
4257.82
4298.13
4336.42
4372.5
4406.12
4436.96
4464.51
4487.89
4505.56
4514.63
4509.72
4480.65
4408.29
4256.68
3958.46
3387.59
2307
442.286
2149.5
15000
15000
15000
15000
15000
15000
15000
15000
15000
15000
15000
15000
15000
15000
15000
15000
15000
15000
15000
15000
15000
15000
15000
15000
15000
15000
15000
15000
15000
15000
15000
14999.9
14999.9
14999.9
14999.9
14999.8
14999.8
14999.7
14999.6
14999.5
14999.4
14999.2
14999.1
14998.8
14998.5
14998.2
14997.7
14997.2
14996.5
14995.7
14994.8
14993.7
14992.3
14990.6
14988.7
14986.4
14983.6
14980.4
14976.6
14972.1
14966.9
14960.8
14953.8
14945.6
14936.2
14925.3
14912.9
14898.6
14882.4
14864
14843.1
14819.4
14792.8
14763
14729.5
14692.2
14650.7
14604.6
14553.7
14497.4
14435.6
14367.9
14293.9
14213.2
14125.5
14030.5
13927.9
13817.4
13698.8
13571.7
13436.1
13291.8
13138.6
12976.5
12805.5
12625.6
12436.9
12239.6
12033.8
11819.9
11598.1
11368.8
11132.5
10889.6
10640.8
10386.6
10127.7
9864.71
9598.43
9329.6
9058.99
8787.42
8515.7
8244.65
7975.11
7707.87
7443.76
7183.55
6928
6677.84
6433.75
6196.38
5966.34
5744.17
5530.37
5325.4
5129.63
4943.4
4766.96
4600.55
4444.31
4298.34
4162.68
4037.32
3922.22
3817.25
3722.28
3637.12
3561.54
3495.28
3438.06
3389.56
3349.46
3317.4
3293
3275.9
3265.71
3262.03
3264.45
3272.6
3286.05
3304.42
3327.32
3354.35
3385.15
3419.32
3456.51
3496.35
3538.51
3582.65
3628.43
3675.53
3723.66
3772.51
3821.81
3871.26
3920.62
3969.62
4018.03
4065.62
4112.17
4157.47
4201.33
4243.55
4283.95
4322.35
4358.55
4392.3
4423.27
4450.97
4474.54
4492.43
4501.8
4497.33
4469.01
4397.97
4248.58
3953.63
3386.01
2305.42
441.637
2143.42
15000
15000
15000
15000
15000
15000
15000
15000
15000
15000
15000
15000
15000
15000
15000
15000
15000
15000
15000
15000
15000
15000
15000
15000
15000
15000
15000
15000
15000
15000
15000
14999.9
14999.9
14999.9
14999.9
14999.8
14999.8
14999.7
14999.6
14999.5
14999.4
14999.2
14999.1
14998.8
14998.5
14998.2
14997.7
14997.2
14996.5
14995.8
14994.8
14993.7
14992.3
14990.7
14988.7
14986.4
14983.6
14980.4
14976.6
14972.2
14966.9
14960.9
14953.8
14945.7
14936.2
14925.4
14913
14898.7
14882.5
14864.1
14843.2
14819.6
14793
14763.2
14729.8
14692.5
14651
14604.9
14554
14497.9
14436.1
14368.4
14294.4
14213.7
14126.1
14031.2
13928.6
13818.2
13699.6
13572.6
13437.1
13292.8
13139.7
12977.6
12806.7
12626.8
12438.2
12240.9
12035.1
11821.2
11599.4
11370.1
11133.8
10890.9
10642
10387.8
10128.8
9865.75
9599.37
9330.42
9059.69
8787.96
8516.07
8244.84
7975.08
7707.62
7443.26
7182.79
6926.95
6676.48
6432.07
6194.36
5963.95
5741.41
5527.23
5321.85
5125.66
4938.99
4762.11
4595.24
4438.54
4292.09
4155.96
4030.12
3914.53
3809.08
3713.62
3627.97
3551.9
3485.15
3427.45
3378.49
3337.92
3305.39
3280.55
3263.02
3252.4
3248.3
3250.33
3258.08
3271.17
3289.19
3311.76
3338.48
3368.97
3402.87
3439.8
3479.42
3521.36
3565.31
3610.92
3657.88
3705.89
3754.64
3803.85
3853.25
3902.58
3951.57
3999.99
4047.61
4094.2
4139.57
4183.51
4225.83
4266.35
4304.87
4341.21
4375.12
4406.27
4434.15
4457.93
4476.07
4485.76
4481.74
4454.1
4384.12
4236.42
3943.98
3379.38
2298.14
442.962
2137.6
15000
15000
15000
15000
15000
15000
15000
15000
15000
15000
15000
15000
15000
15000
15000
15000
15000
15000
15000
15000
15000
15000
15000
15000
15000
15000
15000
15000
15000
15000
15000
14999.9
14999.9
14999.9
14999.9
14999.8
14999.8
14999.7
14999.6
14999.5
14999.4
14999.2
14999.1
14998.8
14998.5
14998.2
14997.7
14997.2
14996.5
14995.8
14994.8
14993.7
14992.3
14990.7
14988.7
14986.4
14983.7
14980.4
14976.6
14972.2
14967
14960.9
14953.9
14945.7
14936.3
14925.5
14913.1
14898.9
14882.7
14864.2
14843.4
14819.8
14793.3
14763.4
14730.1
14692.8
14651.3
14605.3
14554.5
14498.3
14436.6
14369
14295
14214.4
14126.9
14032
13929.5
13819.1
13700.6
13573.7
13438.2
13294
13140.9
12979
12808.1
12628.3
12439.6
12242.4
12036.6
11822.7
11600.9
11371.6
11135.3
10892.4
10643.5
10389.2
10130.1
9867
9600.51
9331.43
9060.53
8788.63
8516.54
8245.09
7975.08
7707.36
7442.7
7181.91
6925.73
6674.9
6430.11
6191.99
5961.17
5738.18
5523.53
5317.67
5120.98
4933.8
4756.4
4588.99
4431.73
4284.73
4148.03
4021.62
3905.45
3799.42
3703.38
3617.14
3540.49
3473.18
3414.91
3365.38
3324.25
3291.18
3265.81
3247.75
3236.62
3232.03
3233.58
3240.88
3253.53
3271.13
3293.3
3319.64
3349.78
3383.35
3419.97
3459.31
3501
3544.72
3590.12
3636.91
3684.77
3733.4
3782.52
3831.85
3881.12
3930.1
3978.52
4026.17
4072.82
4118.26
4162.3
4204.74
4245.39
4284.07
4320.57
4354.66
4386.01
4414.11
4438.13
4456.54
4466.57
4463
4435.99
4366.95
4220.68
3930.47
3370.08
2301.49
444.274
2106.25
15000
15000
15000
15000
15000
15000
15000
15000
15000
15000
15000
15000
15000
15000
15000
15000
15000
15000
15000
15000
15000
15000
15000
15000
15000
15000
15000
15000
15000
15000
15000
14999.9
14999.9
14999.9
14999.9
14999.8
14999.8
14999.7
14999.6
14999.5
14999.4
14999.2
14999.1
14998.8
14998.5
14998.2
14997.7
14997.2
14996.6
14995.8
14994.8
14993.7
14992.3
14990.7
14988.7
14986.4
14983.7
14980.5
14976.7
14972.2
14967
14961
14953.9
14945.8
14936.4
14925.6
14913.2
14899
14882.8
14864.4
14843.6
14820
14793.5
14763.7
14730.4
14693.2
14651.8
14605.8
14555
14498.9
14437.2
14369.7
14295.8
14215.2
14127.7
14032.9
13930.5
13820.2
13701.8
13574.9
13439.5
13295.4
13142.4
12980.5
12809.6
12629.9
12441.4
12244.1
12038.4
11824.5
11602.8
11373.5
11137.1
10894.2
10645.3
10390.9
10131.7
9868.47
9601.85
9332.61
9061.54
8789.43
8517.12
8245.4
7975.12
7707.08
7442.1
7180.94
6924.38
6673.13
6427.9
6189.32
5958
5734.5
5519.32
5312.91
5115.65
4927.88
4749.87
4581.84
4423.96
4276.31
4138.95
4011.88
3895.05
3788.35
3691.64
3604.74
3527.42
3459.44
3400.51
3350.33
3308.56
3274.86
3248.87
3230.21
3218.49
3213.33
3214.33
3221.1
3233.24
3250.35
3272.05
3297.96
3327.69
3360.87
3397.14
3436.15
3477.54
3520.99
3566.16
3612.74
3660.41
3708.9
3757.9
3807.15
3856.37
3905.32
3953.75
4001.43
4048.13
4093.66
4137.8
4180.37
4221.17
4260.02
4296.71
4331.01
4362.58
4390.93
4415.21
4433.93
4444.32
4441.21
4414.83
4346.71
4201.86
3913.89
3356.82
2290.61
444.86
2105.75
15000
15000
15000
15000
15000
15000
15000
15000
15000
15000
15000
15000
15000
15000
15000
15000
15000
15000
15000
15000
15000
15000
15000
15000
15000
15000
15000
15000
15000
15000
15000
14999.9
14999.9
14999.9
14999.9
14999.8
14999.8
14999.7
14999.6
14999.5
14999.4
14999.3
14999.1
14998.8
14998.5
14998.2
14997.7
14997.2
14996.6
14995.8
14994.8
14993.7
14992.3
14990.7
14988.8
14986.5
14983.7
14980.5
14976.7
14972.3
14967.1
14961
14954
14945.9
14936.5
14925.7
14913.3
14899.1
14883
14864.6
14843.8
14820.3
14793.8
14764.1
14730.8
14693.6
14652.2
14606.3
14555.5
14499.5
14437.9
14370.4
14296.6
14216.2
14128.7
14034
13931.7
13821.5
13703.1
13576.3
13441
13297
13144.1
12982.2
12811.5
12631.8
12443.3
12246.1
12040.5
11826.6
11604.8
11375.5
11139.2
10896.2
10647.2
10392.8
10133.5
9870.16
9603.39
9333.98
9062.71
8790.38
8517.8
8245.81
7975.21
7706.83
7441.47
7179.91
6922.91
6671.2
6425.47
6186.37
5954.51
5730.44
5514.66
5307.62
5109.72
4921.28
4742.6
4573.87
4415.27
4266.9
4128.81
4001
3883.42
3775.96
3678.5
3590.84
3512.77
3444.04
3384.37
3333.45
3290.96
3256.55
3229.86
3210.51
3198.13
3192.32
3192.7
3198.86
3210.42
3226.98
3248.16
3273.56
3302.82
3335.56
3371.43
3410.06
3451.11
3494.25
3539.14
3585.48
3632.96
3681.27
3730.14
3779.28
3828.44
3877.35
3925.78
3973.48
4020.25
4065.86
4110.12
4152.82
4193.79
4232.83
4269.73
4304.26
4336.08
4364.7
4389.28
4408.33
4419.1
4416.47
4390.74
4323.59
4180.37
3895.62
3346.38
2304.38
453.49
2105.48
15000
15000
15000
15000
15000
15000
15000
15000
15000
15000
15000
15000
15000
15000
15000
15000
15000
15000
15000
15000
15000
15000
15000
15000
15000
15000
15000
15000
15000
15000
15000
14999.9
14999.9
14999.9
14999.9
14999.8
14999.8
14999.7
14999.6
14999.5
14999.4
14999.3
14999.1
14998.8
14998.5
14998.2
14997.7
14997.2
14996.6
14995.8
14994.8
14993.7
14992.3
14990.7
14988.8
14986.5
14983.8
14980.5
14976.8
14972.3
14967.2
14961.1
14954.1
14946
14936.6
14925.8
14913.5
14899.3
14883.2
14864.9
14844.1
14820.6
14794.1
14764.4
14731.2
14694.1
14652.7
14606.9
14556.2
14500.2
14438.7
14371.3
14297.5
14217.2
14129.8
14035.2
13933
13822.8
13704.6
13577.9
13442.7
13298.7
13145.9
12984.2
12813.5
12633.9
12445.5
12248.3
12042.7
11828.9
11607.2
11377.9
11141.5
10898.5
10649.4
10394.9
10135.6
9872.06
9605.13
9335.54
9064.05
8791.47
8518.62
8246.31
7975.37
7706.61
7440.83
7178.83
6921.35
6669.13
6422.86
6183.19
5950.72
5726.02
5509.58
5301.86
5103.25
4914.08
4734.64
4565.15
4405.76
4256.59
4117.69
3989.06
3870.65
3762.36
3664.06
3575.56
3496.66
3427.1
3366.6
3314.87
3271.57
3236.37
3208.9
3188.8
3175.67
3169.15
3168.82
3174.32
3185.23
3201.17
3221.75
3246.6
3275.33
3307.58
3342.99
3381.2
3421.86
3464.65
3509.23
3555.3
3602.54
3650.65
3699.36
3748.38
3797.46
3846.32
3894.74
3942.47
3989.3
4035
4079.37
4122.23
4163.37
4202.61
4239.74
4274.52
4306.61
4335.52
4360.42
4379.83
4391.01
4388.88
4363.81
4297.63
4155.93
3873.66
3327.99
2284.7
446.848
2087.42
15000
15000
15000
15000
14999.9
14999.9
14999.9
14999.9
14999.9
14999.9
14999.9
14999.9
14999.9
15000
15000
15000
15000
15000
15000
15000
15000
15000
15000
15000
15000
15000
15000
15000
15000
15000
15000
14999.9
14999.9
14999.9
14999.9
14999.8
14999.8
14999.7
14999.6
14999.5
14999.4
14999.3
14999.1
14998.8
14998.5
14998.2
14997.7
14997.2
14996.6
14995.8
14994.8
14993.7
14992.4
14990.7
14988.8
14986.5
14983.8
14980.6
14976.8
14972.4
14967.2
14961.2
14954.2
14946.1
14936.7
14926
14913.6
14899.5
14883.4
14865.1
14844.4
14820.9
14794.5
14764.8
14731.6
14694.6
14653.3
14607.5
14556.9
14501
14439.6
14372.2
14298.6
14218.3
14131.1
14036.5
13934.4
13824.4
13706.2
13579.7
13444.5
13300.7
13147.9
12986.3
12815.7
12636.2
12447.8
12250.8
12045.2
11831.4
11609.7
11380.4
11144
10901
10651.9
10397.3
10137.8
9874.19
9607.09
9337.29
9065.57
8792.73
8519.57
8246.92
7975.61
7706.44
7440.22
7177.73
6919.74
6666.96
6420.1
6179.81
5946.69
5721.3
5504.14
5295.68
5096.3
4906.34
4726.08
4555.75
4395.51
4245.47
4105.68
3976.15
3856.84
3747.64
3648.42
3559.02
3479.2
3408.73
3347.33
3294.71
3250.53
3214.46
3186.14
3165.2
3151.26
3143.95
3142.86
3147.61
3157.81
3173.07
3193
3217.23
3245.38
3277.08
3311.98
3349.72
3389.95
3432.35
3476.58
3522.34
3569.31
3617.2
3665.73
3714.61
3763.58
3812.39
3860.79
3908.54
3955.41
4001.21
4045.71
4088.72
4130.05
4169.5
4206.87
4241.91
4274.29
4303.51
4328.75
4348.54
4360.16
4358.54
4334.15
4268.9
4128.52
3848.03
3303.96
2263.19
441.582
2078.54
15000
15000
14999.9
14999.9
14999.8
14999.8
14999.8
14999.8
14999.8
14999.8
14999.8
14999.9
14999.9
14999.9
14999.9
14999.9
15000
15000
15000
15000
15000
15000
15000
15000
15000
15000
15000
15000
15000
15000
15000
14999.9
14999.9
14999.9
14999.9
14999.8
14999.8
14999.7
14999.6
14999.5
14999.4
14999.3
14999.1
14998.8
14998.5
14998.2
14997.8
14997.2
14996.6
14995.8
14994.9
14993.7
14992.4
14990.8
14988.8
14986.5
14983.8
14980.6
14976.9
14972.5
14967.3
14961.3
14954.3
14946.2
14936.9
14926.1
14913.8
14899.7
14883.6
14865.4
14844.7
14821.3
14794.9
14765.3
14732.1
14695.1
14653.9
14608.2
14557.7
14501.9
14440.5
14373.2
14299.7
14219.5
14132.4
14038
13935.9
13826
13708
13581.5
13446.5
13302.8
13150.2
12988.6
12818.1
12638.7
12450.4
12253.5
12048
11834.2
11612.5
11383.3
11146.8
10903.8
10654.6
10399.9
10140.3
9876.54
9609.26
9339.25
9067.28
8794.15
8520.67
8247.67
7975.96
7706.35
7439.65
7176.65
6918.1
6664.73
6417.24
6176.28
5942.46
5716.33
5498.41
5289.15
5088.94
4898.12
4716.99
4545.75
4384.59
4233.61
4092.88
3962.38
3842.09
3731.92
3631.72
3541.32
3460.52
3389.07
3326.7
3273.11
3227.98
3190.97
3161.72
3139.88
3125.06
3116.88
3114.96
3118.91
3128.33
3142.84
3162.07
3185.62
3213.14
3244.24
3278.58
3315.8
3355.55
3397.52
3441.37
3486.78
3533.45
3581.09
3629.41
3678.13
3726.98
3775.71
3824.08
3871.83
3918.76
3964.64
4009.26
4052.43
4093.95
4133.63
4171.25
4206.56
4239.25
4268.8
4294.4
4314.58
4326.65
4325.58
4301.86
4237.51
4098.39
3819.55
3276.88
2231.66
434.505
2076.09
15000
14999.9
14999.8
14999.7
14999.6
14999.5
14999.4
14999.5
14999.5
14999.5
14999.6
14999.7
14999.7
14999.8
14999.9
14999.9
14999.9
14999.9
15000
15000
15000
15000
15000
15000
15000
15000
15000
15000
15000
15000
15000
14999.9
14999.9
14999.9
14999.9
14999.8
14999.8
14999.7
14999.6
14999.5
14999.4
14999.3
14999.1
14998.8
14998.5
14998.2
14997.8
14997.2
14996.6
14995.8
14994.9
14993.7
14992.4
14990.8
14988.9
14986.6
14983.9
14980.7
14976.9
14972.5
14967.4
14961.4
14954.4
14946.3
14937
14926.3
14914
14899.9
14883.9
14865.7
14845
14821.6
14795.3
14765.8
14732.7
14695.7
14654.6
14609
14558.5
14502.8
14441.5
14374.3
14300.9
14220.8
14133.8
14039.5
13937.6
13827.8
13709.9
13583.6
13448.7
13305.1
13152.6
12991.1
12820.8
12641.4
12453.3
12256.4
12050.9
11837.2
11615.6
11386.3
11149.9
10906.8
10657.6
10402.8
10143.1
9879.11
9611.65
9341.42
9069.19
8795.76
8521.94
8248.56
7976.42
7706.35
7439.15
7175.6
6916.47
6662.47
6414.32
6172.65
5938.08
5711.17
5492.43
5282.32
5081.23
4889.51
4707.44
4535.25
4373.11
4221.13
4079.38
3947.86
3826.53
3715.31
3614.06
3522.61
3440.75
3368.26
3304.84
3250.22
3204.06
3166.05
3135.81
3113
3097.23
3088.13
3085.31
3088.38
3096.97
3110.68
3129.14
3151.96
3178.78
3209.23
3242.96
3279.61
3318.85
3360.34
3403.76
3448.8
3495.14
3542.5
3590.58
3639.11
3687.82
3736.46
3784.77
3832.53
3879.5
3925.46
3970.2
4013.53
4055.24
4095.15
4133.02
4168.63
4201.62
4231.52
4257.5
4278.09
4290.63
4290.11
4267.07
4203.64
4065.82
3789.17
3251.88
2227.82
433.362
2054.7
15000
14999.7
14999.4
14999.1
14998.9
14998.8
14998.7
14998.8
14998.9
14999
14999.2
14999.3
14999.5
14999.6
14999.7
14999.8
14999.9
14999.9
14999.9
15000
15000
15000
15000
15000
15000
15000
15000
15000
15000
15000
15000
14999.9
14999.9
14999.9
14999.9
14999.8
14999.8
14999.7
14999.6
14999.5
14999.4
14999.3
14999.1
14998.8
14998.5
14998.2
14997.8
14997.2
14996.6
14995.8
14994.9
14993.8
14992.4
14990.8
14988.9
14986.6
14983.9
14980.7
14977
14972.6
14967.5
14961.5
14954.5
14946.5
14937.2
14926.5
14914.2
14900.2
14884.2
14866
14845.4
14822
14795.8
14766.3
14733.3
14696.4
14655.3
14609.8
14559.4
14503.8
14442.6
14375.5
14302.2
14222.2
14135.3
14041.1
13939.4
13829.7
13711.9
13585.7
13451
13307.5
13155.1
12993.8
12823.6
12644.4
12456.3
12259.5
12054.1
11840.5
11618.8
11389.6
11153.2
10910
10660.7
10405.8
10146
9881.92
9614.26
9343.79
9071.29
8797.55
8523.38
8249.6
7977.03
7706.47
7438.74
7174.62
6914.87
6660.22
6411.36
6168.95
5933.6
5705.87
5486.27
5275.27
5073.25
4880.57
4697.52
4524.32
4361.15
4208.11
4065.29
3932.68
3810.26
3697.93
3595.56
3503
3420.03
3346.42
3281.9
3226.18
3178.94
3139.85
3108.57
3084.72
3067.94
3057.85
3054.07
3056.22
3063.91
3076.76
3094.39
3116.43
3142.51
3172.26
3205.33
3241.37
3280.04
3321.02
3363.97
3408.59
3454.57
3501.61
3549.42
3597.74
3646.29
3694.81
3743.06
3790.8
3837.8
3883.83
3928.69
3972.17
4014.08
4054.21
4092.35
4128.24
4161.57
4191.82
4218.18
4239.21
4252.23
4252.27
4229.94
4167.43
4030.91
3756.02
3219.96
2185.81
420.805
2039.19
15000
14999.2
14998.4
14997.8
14997.3
14997.1
14997.1
14997.3
14997.6
14998
14998.3
14998.7
14999
14999.2
14999.4
14999.6
14999.7
14999.8
14999.9
14999.9
14999.9
15000
15000
15000
15000
15000
15000
15000
15000
15000
15000
14999.9
14999.9
14999.9
14999.9
14999.8
14999.8
14999.7
14999.6
14999.5
14999.4
14999.3
14999.1
14998.8
14998.6
14998.2
14997.8
14997.2
14996.6
14995.8
14994.9
14993.8
14992.4
14990.8
14988.9
14986.6
14984
14980.8
14977
14972.7
14967.5
14961.6
14954.6
14946.6
14937.4
14926.7
14914.4
14900.4
14884.5
14866.3
14845.7
14822.5
14796.3
14766.8
14733.9
14697.1
14656.1
14610.6
14560.3
14504.8
14443.8
14376.8
14303.6
14223.7
14137
14042.9
13941.3
13831.8
13714.1
13588.1
13453.5
13310.1
13157.9
12996.7
12826.6
12647.5
12459.5
12262.8
12057.5
11843.9
11622.3
11393.1
11156.7
10913.5
10664.1
10409.2
10149.2
9884.95
9617.09
9346.39
9073.61
8799.54
8525.01
8250.81
7977.78
7706.73
7438.45
7173.74
6913.34
6658
6408.41
6165.23
5929.06
5700.48
5479.99
5268.05
5065.07
4871.39
4687.31
4513.05
4348.79
4194.66
4050.71
3916.97
3793.39
3679.9
3576.37
3482.64
3398.5
3323.72
3258.03
3201.16
3152.77
3112.55
3080.15
3055.21
3037.36
3026.23
3021.44
3022.6
3029.34
3041.27
3058.03
3079.23
3104.51
3133.51
3165.88
3201.26
3239.33
3279.74
3322.19
3366.35
3411.93
3458.62
3506.14
3554.22
3602.58
3650.97
3699.13
3746.83
3793.84
3839.94
3884.9
3928.53
3970.63
4010.99
4049.39
4085.58
4119.23
4149.85
4176.61
4198.07
4211.58
4212.21
4190.59
4129.04
3993.84
3720.9
3188
2161.91
417.169
2050.37
15000
14997.6
14995.5
14994.3
14993.7
14993.6
14993.9
14994.5
14995.2
14996.1
14996.8
14997.5
14998.1
14998.6
14999
14999.3
14999.5
14999.7
14999.8
14999.9
14999.9
14999.9
15000
15000
15000
15000
15000
15000
15000
15000
15000
14999.9
14999.9
14999.9
14999.9
14999.8
14999.8
14999.7
14999.6
14999.5
14999.4
14999.3
14999.1
14998.8
14998.6
14998.2
14997.8
14997.3
14996.6
14995.9
14994.9
14993.8
14992.5
14990.9
14989
14986.7
14984
14980.8
14977.1
14972.7
14967.6
14961.7
14954.8
14946.8
14937.5
14926.9
14914.7
14900.7
14884.8
14866.7
14846.1
14822.9
14796.8
14767.4
14734.5
14697.8
14656.9
14611.5
14561.3
14505.9
14445
14378.1
14305
14225.3
14138.7
14044.8
13943.3
13833.9
13716.4
13590.5
13456.1
13312.8
13160.8
12999.7
12829.7
12650.8
12462.9
12266.3
12061.1
11847.6
11626
11396.8
11160.4
10917.2
10667.8
10412.7
10152.6
9888.21
9620.15
9349.2
9076.13
8801.74
8526.83
8252.21
7978.71
7707.14
7438.29
7172.96
6911.91
6655.86
6405.52
6161.53
5924.52
5695.05
5473.63
5260.73
5056.74
4862.03
4676.88
4501.52
4336.14
4180.86
4035.75
3900.82
3776.05
3661.35
3556.6
3461.65
3376.28
3300.28
3233.38
3175.29
3125.71
3084.31
3050.75
3024.66
3005.69
2993.46
2987.59
2987.72
2993.45
3004.42
3020.24
3040.56
3064.99
3093.2
3124.81
3159.49
3196.91
3236.72
3278.62
3322.3
3367.43
3413.74
3460.94
3508.75
3556.89
3605.12
3653.18
3700.82
3747.83
3793.97
3839.02
3882.79
3925.07
3965.65
4004.31
4040.8
4074.79
4105.77
4132.93
4154.83
4168.85
4170.08
4149.23
4088.71
3955.1
3684.86
3157.19
2142.4
415.654
2084.18
15000
14992
14986.4
14985
14985.6
14986.7
14988
14989.6
14991.3
14992.9
14994.4
14995.7
14996.8
14997.7
14998.4
14998.9
14999.2
14999.5
14999.7
14999.8
14999.9
14999.9
14999.9
15000
15000
15000
15000
15000
15000
15000
15000
14999.9
14999.9
14999.9
14999.9
14999.8
14999.8
14999.7
14999.6
14999.5
14999.4
14999.3
14999.1
14998.8
14998.6
14998.2
14997.8
14997.3
14996.6
14995.9
14994.9
14993.8
14992.5
14990.9
14989
14986.7
14984.1
14980.9
14977.2
14972.8
14967.7
14961.8
14954.9
14946.9
14937.7
14927.1
14914.9
14901
14885.1
14867
14846.6
14823.4
14797.3
14768
14735.2
14698.6
14657.8
14612.5
14562.4
14507.1
14446.3
14379.5
14306.6
14227
14140.5
14046.7
13945.4
13836.2
13718.8
13593.1
13458.8
13315.7
13163.8
13002.9
12833.1
12654.2
12466.5
12270
12064.9
11851.4
11630
11400.8
11164.4
10921.1
10671.7
10416.5
10156.3
9891.7
9623.43
9352.23
9078.87
8804.14
8528.84
8253.8
7979.82
7707.71
7438.29
7172.33
6910.6
6653.82
6402.7
6157.9
5920.02
5689.63
5467.26
5253.36
5048.35
4852.56
4666.31
4489.83
4323.29
4166.82
4020.5
3884.35
3758.34
3642.39
3536.38
3440.16
3353.53
3276.26
3208.1
3148.75
3097.93
3055.29
3020.51
2993.23
2973.08
2959.71
2952.73
2951.76
2956.45
2966.4
2981.24
3000.62
3024.17
3051.52
3082.34
3116.28
3153
3192.18
3233.49
3276.63
3321.29
3367.19
3414.02
3461.53
3509.43
3557.47
3605.4
3652.97
3699.95
3746.12
3791.25
3835.15
3877.59
3918.39
3957.3
3994.08
4028.4
4059.74
4087.31
4109.66
4124.2
4126.05
4106
4046.65
3914.99
3648.48
3128.98
2134.69
416.372
2107.77
15000
14976.2
14962.3
14962.8
14968.7
14974.2
14978.4
14982
14985.3
14988.3
14991
14993.2
14995
14996.4
14997.4
14998.2
14998.8
14999.2
14999.5
14999.7
14999.8
14999.9
14999.9
15000
15000
15000
15000
15000
15000
15000
15000
14999.9
14999.9
14999.9
14999.9
14999.8
14999.8
14999.7
14999.6
14999.5
14999.4
14999.3
14999.1
14998.9
14998.6
14998.2
14997.8
14997.3
14996.6
14995.9
14995
14993.8
14992.5
14990.9
14989
14986.8
14984.1
14981
14977.3
14972.9
14967.9
14961.9
14955.1
14947.1
14937.9
14927.3
14915.2
14901.3
14885.5
14867.4
14847
14823.9
14797.9
14768.7
14735.9
14699.4
14658.7
14613.5
14563.5
14508.3
14447.6
14381
14308.2
14228.7
14142.4
14048.8
13947.6
13838.5
13721.4
13595.8
13461.7
13318.8
13167
13006.3
12836.6
12657.9
12470.3
12273.9
12068.9
11855.5
11634.1
11404.9
11168.5
10925.3
10675.7
10420.5
10160.2
9895.4
9626.93
9355.48
9081.83
8806.76
8531.07
8255.58
7981.11
7708.47
7438.46
7171.86
6909.44
6651.92
6400.01
6154.36
5915.59
5684.28
5460.93
5246.01
5039.94
4843.06
4655.68
4478.03
4310.31
4152.63
4005.07
3867.66
3740.37
3623.14
3515.83
3418.31
3330.37
3251.79
3182.33
3121.69
3069.57
3025.66
2989.62
2961.1
2939.74
2925.17
2917.02
2914.93
2918.51
2927.4
2941.23
2959.62
2982.24
3008.7
3038.68
3071.83
3107.81
3146.31
3187
3229.57
3273.72
3319.17
3365.61
3412.78
3460.41
3508.23
3556
3603.47
3650.41
3696.58
3741.78
3785.78
3828.38
3869.38
3908.54
3945.6
3980.24
4011.94
4039.91
4062.73
4077.79
4080.27
4061.07
4002.96
3873.31
3610.37
3097.12
2112.41
414.576
2126.64
15000
14945.5
14916.7
14922.8
14940.9
14955.7
14965.3
14972.1
14977.8
14982.6
14986.7
14990
14992.7
14994.8
14996.3
14997.5
14998.3
14998.9
14999.3
14999.5
14999.7
14999.8
14999.9
14999.9
15000
15000
15000
15000
15000
15000
15000
14999.9
14999.9
14999.9
14999.9
14999.8
14999.8
14999.7
14999.6
14999.5
14999.4
14999.3
14999.1
14998.9
14998.6
14998.2
14997.8
14997.3
14996.7
14995.9
14995
14993.9
14992.5
14991
14989.1
14986.8
14984.2
14981
14977.3
14973
14968
14962.1
14955.2
14947.3
14938.1
14927.6
14915.5
14901.6
14885.8
14867.8
14847.5
14824.4
14798.5
14769.3
14736.7
14700.2
14659.6
14614.5
14564.6
14509.6
14449
14382.5
14309.9
14230.6
14144.4
14050.9
13949.9
13841
13724
13598.6
13464.7
13322
13170.4
13009.8
12840.2
12661.7
12474.2
12277.9
12073
11859.8
11638.4
11409.3
11172.9
10929.6
10680
10424.7
10164.3
9899.33
9630.65
9358.96
9085
8809.59
8533.51
8257.58
7982.61
7709.42
7438.81
7171.56
6908.44
6650.17
6397.45
6150.95
5911.28
5679.02
5454.67
5238.72
5031.57
4833.58
4645.05
4466.22
4297.28
4138.36
3989.54
3850.85
3722.26
3603.71
3495.07
3396.21
3306.94
3227.02
3156.21
3094.24
3040.8
2995.58
2958.24
2928.44
2905.82
2890.02
2880.67
2877.4
2879.85
2887.63
2900.4
2917.77
2939.4
2964.94
2994.04
3026.36
3061.57
3099.34
3139.37
3181.33
3224.94
3269.89
3315.91
3362.72
3410.04
3457.62
3505.2
3552.54
3599.4
3645.56
3690.8
3734.89
3777.64
3818.82
3858.21
3895.54
3930.49
3962.55
3990.92
4014.19
4029.78
4032.92
4014.58
3957.72
3830.01
3570.11
3061.38
2081
411.907
2192.72
15000
14919.8
14878.1
14888.5
14916.4
14938.7
14952.9
14962.5
14970.2
14976.8
14982.3
14986.7
14990.3
14993
14995.1
14996.6
14997.7
14998.5
14999
14999.4
14999.6
14999.8
14999.9
14999.9
14999.9
15000
15000
15000
15000
15000
15000
14999.9
14999.9
14999.9
14999.9
14999.8
14999.8
14999.7
14999.6
14999.5
14999.4
14999.3
14999.1
14998.9
14998.6
14998.2
14997.8
14997.3
14996.7
14995.9
14995
14993.9
14992.6
14991
14989.1
14986.9
14984.2
14981.1
14977.4
14973.1
14968.1
14962.2
14955.4
14947.5
14938.3
14927.8
14915.8
14901.9
14886.2
14868.3
14848
14825
14799.1
14770
14737.5
14701.1
14660.6
14615.6
14565.8
14510.9
14450.5
14384.1
14311.6
14232.5
14146.4
14053.2
13952.3
13843.6
13726.8
13601.6
13467.8
13325.3
13173.8
13013.5
12844.1
12665.7
12478.3
12282.2
12077.4
11864.2
11642.9
11413.9
11177.5
10934.2
10684.5
10429.1
10168.6
9903.47
9634.58
9362.64
9088.39
8812.63
8536.15
8259.78
7984.32
7710.58
7439.36
7171.46
6907.62
6648.59
6395.06
6147.7
5907.12
5673.89
5448.55
5231.55
5023.31
4824.19
4634.49
4454.46
4284.29
4124.11
3974.01
3834.01
3704.09
3584.2
3474.22
3374
3283.35
3202.07
3129.89
3066.56
3011.77
2965.2
2926.53
2895.42
2871.51
2854.44
2843.85
2839.37
2840.64
2847.29
2858.95
2875.26
2895.88
2920.45
2948.63
2980.08
3014.47
3051.49
3090.81
3132.13
3175.16
3219.59
3265.14
3311.55
3358.53
3405.83
3453.2
3500.38
3547.15
3593.27
3638.52
3682.68
3725.55
3766.89
3806.5
3844.09
3879.34
3911.75
3940.51
3964.22
3980.35
3984.14
3966.69
3911.15
3785.54
3529.2
3026.86
2059.36
411.167
2151.92
15000
14941.8
14908.1
14909.5
14924.4
14938
14948.3
14957.1
14965.1
14972.4
14978.7
14984
14988.2
14991.5
14994
14995.9
14997.2
14998.2
14998.8
14999.3
14999.5
14999.7
14999.8
14999.9
14999.9
15000
15000
15000
15000
15000
15000
14999.9
14999.9
14999.9