<?xml version="1.0"?>
<VTKFile type="PolyData" version="0.1" byte_order="LittleEndian">
  <PolyData>
    <Piece NumberOfPoints="50000" NumberOfVerts="50000" NumberOfLines="0" NumberOfStrips="0" NumberOfPolys="0">
      <Points>
        <DataArray type="Float32" NumberOfComponents="3" format="ascii">
0.583861 0.0115253 0
-0.556142 0.00356155 0
0.566069 -0.00474825 0
0.591 -0.00402411 0
-0.484196 0.00851829 0
-0.406989 0.00248758 0
0.194246 -0.0387596 0
-0.499936 -0.00065472 0
0.171194 -0.0303611 0
-0.0403738 0.0124837 0
0.444143 -0.0193169 0
0.563475 0.0104096 0
-0.326375 0.0096306 0
-0.232345 -0.0365302 0
-0.607612 0.00268981 0
0.458034 0.0170612 0
-0.0856258 -0.00384364 0
0.586303 0.00148435 0
0.221913 0.00129057 0
-0.556973 0.00478128 0
-0.583378 0.00745024 0
0.508237 0.00900776 0
-0.576032 0.00308754 0
0.571385 -0.000951339 0
0.364055 -0.019437 0
0.426001 0.0180823 0
-0.571564 -0.0117204 0
0.58685 -0.00589988 0
-0.409655 0.0337595 0
-0.601141 0.0126823 0
-0.452964 0.0170161 0
-0.421473 -0.0248812 0
0.581199 0.000237714 0
0.585282 -0.00244598 0
0.110929 0.00675636 0
0.595042 -0.0033225 0
0.180243 0.00140539 0
-0.595974 0.00310911 0
-0.558357 -0.00832253 0
-0.620426 -0.00430403 0
0.429437 0.0184347 0
0.453775 0.0081868 0
-0.569289 -0.00403213 0
0.577513 0.000101774 0
0.598751 0.00101718 0
-0.586358 0.0121965 0
0.568966 0.00631108 0
0.291755 -0.0227115 0
0.561863 -0.000407984 0
0.575204 -0.000655517 0
0.241198 0.030773 0
-0.574706 -0.00209247 0
-0.400157 0.0131919 0
0.56766 0.00337796 0
-0.565928 0.00303547 0
-0.603377 0.00325458 0
0.584641 -0.0027643 0
0.235926 0.0162829 0
0.437444 0.0102923 0
0.60366 -0.00805318 0
0.493157 0.00620085 0
0.590821 0.00299349 0
0.129914 -0.0478927 0
0.603703 -0.00344092 0
-0.195673 0.0241455 0
-0.564132 0.00160838 0
0.573738 -0.00216764 0
0.589618 -0.00176372 0
0.609968 0.00510141 0
0.422058 0.000658365 0
-0.570995 0.00428668 0
0.572803 0.00465078 0
0.312398 0.000992531 0
0.319891 0.0092452 0
0.272608 0.00682745 0
-0.579113 -0.00411558 0
0.501343 0.0175312 0
-0.550117 0.00585156 0
0.44199 0.00932451 0
-0.602095 0.00193499 0
-0.304496 -0.0499186 0
-0.589737 0.00598824 0
0.541476 0.00666308 0
-0.573134 0.000530057 0
0.602915 -0.00772106 0
-0.574853 0.00441219 0
0.604017 -0.00757923 0
-0.259304 -0.0129771 0
-0.251001 0.0329867 0
-0.579498 -0.010783 0
0.567566 0.00893405 0
-0.566901 -0.00131783 0
0.570717 -0.00335602 0
-0.391576 0.0279836 0
-0.0598527 -0.0324114 0
-0.510349 0.00721306 0
0.569338 0.0119126 0
-0.584646 0.00431959 0
-0.616649 0.0102739 0
-0.611827 -0.00191363 0
-0.51327 -0.0114384 0
-0.568985 -0.00859725 0
0.6081 -0.00164511 0
-0.247458 -0.0305228 0
0.612407 -0.00144903 0
0.501639 0.0177844 0
0.368348 0.00904681 0
0.0290402 0.010921 0
0.563036 0.00591953 0
-0.576608 -0.00711918 0
-0.435655 0.0280715 0
-0.58518 0.00419123 0
-0.49983 0.0148347 0
436.665 631.66 0
0.383899 0.0100517 0
-0.576816 0.00476531 0
-0.598086 0.00601271 0
11.2284 15.3602 0
-0.58081 0.00199723 0
-0.0304112 -0.0131976 0
0.587069 -0.00272963 0
-0.560203 -0.0058849 0
0.396053 -0.00569659 0
-0.536105 0.0102936 0
0.576368 -0.001643 0
0.560131 -0.00202099 0
0.183963 0.034135 0
0.592314 0.00577377 0
-0.520088 -0.010435 0
0.446916 -0.00192288 0
0.595448 -0.00524549 0
0.590755 -0.00124087 0
-0.614318 0.000661507 0
-0.512618 0.00541086 0
0.604844 -0.0032647 0
0.574853 -0.00214072 0
0.554512 -0.00467646 0
-0.0932806 0.00402517 0
0.463843 -0.0210957 0
0.451177 -0.0178154 0
0.463646 -0.0214251 0
0.550294 0.0133456 0
0.59414 -0.00555658 0
-0.139127 -0.0207656 0
-0.595413 0.00931502 0
0.3949 -0.0331799 0
-0.382038 0.0285202 0
-0.587444 0.00244544 0
-0.420895 -0.0293112 0
-0.589251 0.00489708 0
0.448591 0.0101258 0
0.570976 0.00265747 0
-0.179738 -0.0176281 0
0.465204 -0.0155032 0
0.462647 0.0115323 0
0.56608 0.00499264 0
0.3878 -0.0146174 0
-0.577335 0.00358431 0
-0.249927 -0.00918254 0
0.592431 -0.0011975 0
0.395796 -0.00298048 0
-0.523897 -0.00476138 0
-0.567253 0.0031988 0
-0.589747 0.00329683 0
-0.153337 0.0139356 0
0.456495 -0.00976202 0
0.51601 -0.00870671 0
0.522778 0.00473101 0
0.436478 0.0108145 0
-0.243153 0.000301492 0
0.610266 -0.00774897 0
-0.565467 0.00403657 0
-0.135022 -0.00909207 0
0.589604 0.00562568 0
-0.108853 -0.0055649 0
-0.457267 0.0222463 0
-0.566992 0.00313447 0
-0.345838 -0.0165176 0
-0.574711 -0.00384364 0
-0.577169 -0.0100092 0
0.565393 -0.000782287 0
-0.583864 0.00882182 0
-0.575023 0.00736467 0
0.583596 0.0070791 0
0.569525 -0.0019781 0
0.440668 -0.0256934 0
0.611567 -0.00562191 0
0.605259 -2.72041e-05 0
0.586687 -0.00601776 0
0.0651414 0.0423661 0
0.596728 -0.00597038 0
0.483415 -0.0138423 0
-0.390709 -0.0271825 0
0.538135 0.00867788 0
-0.534635 0.008706 0
0.565229 0.00186336 0
-0.476607 0.0164779 0
-0.507613 0.00715989 0
-0.569494 0.00507867 0
0.572247 0.00649301 0
-0.381104 0.0269323 0
0.603749 0.00328497 0
0.523668 -0.00855967 0
-0.120428 -0.0108625 0
0.611287 -0.0078961 0
-0.561015 -0.0120889 0
0.0792887 0.0690451 0
0.24205 -0.0102543 0
-0.508566 0.0149836 0
-0.35879 -0.0153172 0
0.559721 0.000174423 0
-0.250763 -0.0310278 0
0.527636 -0.0059505 0
-0.491532 0.0154397 0
-0.337529 -0.0235128 0
-0.589674 0.00829118 0
-0.581817 0.0106618 0
0.580162 -0.00109258 0
-0.598382 -0.00258444 0
-0.0711265 0.0299285 0
-0.460593 0.0164712 0
-0.597012 0.00474657 0
-0.554692 -0.0098449 0
0.606193 -0.00495035 0
0.214665 0.0352669 0
-0.567313 0.00388551 0
0.609555 0.00099046 0
0.584497 -0.00188672 0
-0.504647 0.0136158 0
-0.594359 -0.00139227 0
-0.584888 -0.00608735 0
0.568468 0.00549137 0
0.296541 0.0336897 0
-0.091124 0.0212085 0
-0.605512 0.0058964 0
-0.521616 0.00799906 0
0.447518 -0.0260863 0
-0.45943 -0.00704944 0
-0.57878 0.00428624 0
0.354121 -0.00488465 0
0.598312 -0.000715903 0
-0.531189 -0.0103803 0
-0.585299 0.00435254 0
-0.339459 -0.0209561 0
0.292019 0.00930615 0
0.522558 0.00542972 0
-0.552983 0.00965637 0
0.585013 -0.00188112 0
0.602638 0.00320644 0
0.345537 0.0176067 0
0.360353 0.00573128 0
-0.550578 0.00678432 0
0.565402 -0.00492236 0
-0.261258 -0.0142587 0
-0.532749 0.0112484 0
0.566118 -0.00107466 0
-0.516381 0.0109545 0
0.501442 0.0124275 0
0.217179 0.0334035 0
0.313099 -0.000259402 0
0.602262 0.00065856 0
-0.550373 0.00653353 0
0.109594 -0.0126079 0
0.0544906 -0.0209255 0
-0.392904 0.00438862 0
-0.577768 0.000998006 0
-0.569161 0.00368631 0
-0.564963 -0.00256942 0
0.579844 -0.00216876 0
0.575538 -0.00183298 0
0.592807 -0.00205338 0
-0.58287 -0.004696 0
0.380314 0.00383355 0
0.0310684 0.0176402 0
-0.608945 0.00675542 0
-0.592171 0.00276699 0
0.563175 -0.00124576 0
-0.565982 0.00380755 0
0.559569 0.0088 0
-0.574055 -0.00265995 0
-0.556999 -0.000769335 0
-0.258646 -0.0338998 0
-0.583259 0.0030209 0
0.549979 -0.00383886 0
-0.496111 0.0149882 0
-0.558763 -0.00524601 0
-0.222317 0.0282851 0
-0.58145 0.00420006 0
-0.590804 0.00496502 0
0.495984 -0.00514388 0
-0.207969 0.00925242 0
0.57906 -0.00204402 0
0.591791 -0.00490292 0
0.377462 0.0195378 0
0.601371 0.004145 0
0.570499 0.00830887 0
0.599096 0.00546009 0
-0.400507 0.0332445 0
-0.546281 0.00243025 0
-0.607539 0.000783131 0
0.614268 0.000652411 0
-0.0828964 0.010104 0
0.57718 -0.00324226 0
0.563148 0.00408693 0
0.594401 -0.00176328 0
0.101412 0.0170867 0
-0.307252 0.0357075 0
0.50066 0.00715155 0
-0.0709452 -1.99204e-05 0
-0.285888 0.0129629 0
-0.478126 0.0161612 0
0.578678 0.00893867 0
-0.423468 0.0204941 0
0.535966 -0.00843764 0
0.441583 -0.00753104 0
-0.605357 0.00855673 0
0.471349 -0.0219722 0
0.607832 -0.00822822 0
0.543554 -0.0050345 0
0.580629 0.0100395 0
-0.590606 0.00724174 0
-0.13019 0.0212247 0
0.592907 0.0023478 0
0.590014 -0.00204734 0
0.2723 0.0353382 0
-0.563452 -0.00118067 0
-0.553081 0.00673434 0
0.60748 4.27345e-05 0
-0.565533 -0.00495063 0
0.585602 0.00291698 0
0.589902 -0.00421517 0
0.282559 -0.0346082 0
0.565339 0.0044434 0
-0.580127 0.00426568 0
-0.496651 -0.00145707 0
-0.333762 -0.00425234 0
0.0462252 -0.0118491 0
0.0700339 -0.0432697 0
-0.532208 0.00433273 0
0.262832 -0.0383685 0
-0.0628214 0.0583422 0
-0.598863 0.00829252 0
-0.428496 0.0191782 0
-0.584715 0.00592015 0
-0.24304 -0.0202747 0
0.589406 0.00926525 0
-0.416165 0.0216157 0
-0.591657 -0.000583434 0
-97.5071 403.309 0
0.588201 -0.00828787 0
0.58678 -0.00227324 0
-0.482789 0.0199475 0
0.570279 0.00362595 0
0.541167 -0.00210958 0
-867.468 -1551.33 0
0.179702 0.0206217 0
-0.58566 0.00488176 0
-0.487468 -0.00413036 0
0.582757 0.0044762 0
6.10409 -12.5768 0
0.551664 0.00660304 0
-0.573103 -0.0091842 0
-0.366503 -0.000175473 0
-0.582018 -0.005237 0
-0.593486 0.00925653 0
0.578327 -0.00210479 0
-0.603058 -0.00259403 0
-0.522969 0.0127423 0
0.454044 0.0175977 0
-0.568251 -0.000421898 0
-0.473933 0.019968 0
-0.52555 0.0113552 0
0.584464 0.00548273 0
0.526937 -0.0107233 0
-0.350396 0.027052 0
0.600661 -0.00365217 0
-0.585878 -0.00865528 0
-0.545556 -0.00579116 0
-0.592261 0.00134681 0
0.050696 -0.0458354 0
-0.570143 -0.00821037 0
0.57611 0.00551517 0
-0.581403 0.00482628 0
-0.578043 0.00239998 0
-0.143127 0.0213714 0
0.377505 0.019267 0
-0.189833 0.0523367 0
0.123924 0.0293669 0
-0.586471 0.00518148 0
-0.106706 0.00469922 0
-0.587459 -0.00187405 0
-0.59058 0.00747486 0
0.563231 -0.00908041 0
0.496483 0.0130743 0
-0.5528 0.00878679 0
0.523198 0.00642926 0
0.520038 0.00137846 0
-0.563642 0.0039403 0
-0.311684 -0.010791 0
0.411512 -0.025554 0
-0.564131 0.00074751 0
0.49828 -0.0134849 0
0.227754 -0.0075161 0
-0.580218 -0.00192246 0
0.541245 -0.00147276 0
0.569389 -0.00395325 0
0.577973 -0.0074445 0
0.588905 -0.00285574 0
0.599018 -0.000550447 0
0.567393 0.00935903 0
-0.583768 0.00353966 0
0.419064 0.0134691 0
-0.482739 -0.00779488 0
0.275306 0.0382444 0
-0.549666 0.00347685 0
-0.196972 -0.00861458 0
-0.456237 0.0165383 0
0.165745 -0.0208547 0
-0.595948 0.00519225 0
0.568354 -0.00213798 0
-0.161318 0.0423872 0
0.203415 0.022037 0
-0.603985 0.00443351 0
0.572365 0.0021258 0
0.590179 -0.00157337 0
0.56405 0.0119407 0
0.602631 -0.00735764 0
-0.575863 0.0042479 0
-0.594076 0.00318367 0
0.585939 -0.00277961 0
-0.410316 0.0234517 0
0.273115 0.0386556 0
[...]
      <PointData Scalars="T">
        <DataArray type="Float32" Name="T" format="ascii" NumberOfComponents="1">
321.551
498.325
319.674
319.674
498.325
498.325
319.674
513.593
319.674
498.325
319.674
321.551
498.325
513.593
498.325
321.551
513.593
327.865
315.678
498.325
498.325
321.551
498.325
319.674
319.674
321.551
513.593
319.674
498.325
498.325
498.325
513.593
336.588
319.674
321.551
319.674
318.371
498.325
513.593
513.593
321.551
321.551
513.593
348.337
307.997
498.325
321.551
319.674
319.674
319.674
321.551
513.593
498.325
321.551
498.325
498.325
319.674
321.551
321.551
319.674
321.551
321.551
319.674
319.674
498.325
1311.46
319.674
319.674
321.551
316.251
498.325
321.551
308.381
321.551
321.551
513.593
321.551
498.325
321.551
498.325
513.593
498.325
321.551
1136.01
319.674
498.325
319.674
513.593
498.325
513.593
321.551
513.593
319.674
498.325
513.593
498.325
321.551
498.325
498.325
513.593
513.593
513.593
319.674
513.593
319.674
321.551
321.551
321.551
321.551
513.593
498.325
498.325
498.325
321.551
321.551
498.325
498.325
321.551
498.325
513.593
319.674
513.593
319.674
498.325
319.674
319.674
321.551
321.551
513.593
319.674
319.674
319.674
1372.12
498.325
319.674
319.674
319.674
498.325
319.674
319.674
319.674
321.551
319.674
513.593
498.325
319.674
498.325
498.325
513.593
498.325
321.551
321.551
513.593
319.674
321.551
321.551
319.674
498.325
513.593
319.674
319.674
513.593
498.325
498.325
498.325
319.674
319.674
321.551
321.551
1181.37
319.674
498.325
513.593
321.551
513.593
498.325
498.325
513.593
513.593
513.593
319.674
498.325
498.325
321.551
319.674
319.674
319.674
319.674
319.674
321.551
319.674
319.674
513.593
321.551
498.325
360.714
498.325
498.325
498.325
321.551
498.325
321.551
319.674
513.593
319.674
513.593
321.551
319.674
498.325
513.593
346.634
513.593
319.674
498.325
513.593
498.325
498.325
319.674
513.593
498.325
498.325
498.325
513.593
319.674
321.551
498.325
308.381
319.674
498.325
513.593
513.593
321.551
321.551
498.325
498.325
498.325
319.674
513.593
498.325
319.674
319.674
513.593
498.325
513.593
321.551
321.551
498.325
319.674
321.551
321.551
321.551
498.325
319.674
513.593
498.325
319.674
498.325
321.551
321.551
319.674
316.251
498.325
319.674
319.674
498.325
1138.67
498.325
513.593
319.674
319.674
319.674
513.593
321.551
321.551
498.325
498.325
319.674
498.325
321.551
513.593
513.593
513.593
498.325
319.674
498.325
513.593
498.325
498.325
498.325
319.674
498.325
319.674
319.674
321.551
321.551
321.551
321.551
498.325
498.325
1218.89
316.251
498.325
319.674
321.551
319.674
321.551
498.325
321.551
513.593
498.325
498.325
321.551
498.325
319.674
319.674
498.325
319.674
319.674
319.674
321.551
498.325
498.325
321.551
319.674
321.551
513.593
498.325
354.124
513.593
321.551
319.674
319.674
321.551
498.325
513.593
513.593
319.674
319.674
498.325
319.674
498.325
498.325
498.325
498.325
513.593
321.551
498.325
513.593
498.325
319.674
319.674
498.325
321.551
319.674
513.593
321.551
498.325
513.593
321.551
319.674
321.551
513.593
513.593
513.593
498.325
319.674
513.593
498.325
321.551
513.593
498.325
498.325
321.551
319.674
498.325
319.674
513.593
513.593
1311.8
319.674
513.593
321.551
498.325
498.325
498.325
321.551
498.325
321.551
498.325
498.325
513.593
498.325
319.674
321.551
498.325
321.551
316.481
498.325
513.593
319.674
1148.79
319.674
319.674
513.593
319.674
319.674
319.674
319.674
319.674
321.551
498.325
321.551
513.593
321.551
498.325
513.593
498.325
319.674
498.325
319.674
498.325
321.551
498.325
321.551
319.674
321.551
319.674
498.325
498.325
319.674
498.325
321.551
498.325
321.551
1364.19
513.593
498.325
498.325
321.551
320.357
498.325
319.674
1073.93
513.593
513.593
498.325
513.593
321.551
319.674
513.593
321.551
513.593
513.593
319.674
319.674
513.593
498.325
1156.23
513.593
327.124
513.593
319.674
498.325
513.593
319.674
321.551
513.593
513.593
498.325
498.325
321.551
1186.27
319.674
319.674
321.551
498.325
498.325
498.325
319.674
321.551
513.593
513.593
513.593
498.325
318.371
321.551
319.674
313.982
498.325
321.551
321.551
309.114
498.325
321.551
319.674
513.593
319.674
498.325
498.325
498.325
513.593
513.593
513.593
513.593
513.593
319.674
319.674
319.674
321.551
319.674
321.551
321.551
513.593
321.551
498.325
319.674
321.551
498.325
321.551
498.325
498.325
498.325
513.593
321.551
319.674
321.551
319.674
319.674
319.674
498.325
321.551
321.551
1081.81
321.551
1096.87
498.325
513.593
319.674
319.674
498.325
498.325
513.593
513.593
513.593
321.551
321.551
321.551
321.551
513.593
498.325
321.551
498.325
345.411
321.551
513.593
498.325
319.674
498.325
321.551
321.551
513.593
321.551
513.593
319.674
1228.12
498.325
316.684
319.674
513.593
513.593
1214
498.325
498.325
321.551
319.674
319.674
323.17
321.551
513.593
513.593
513.593
513.593
498.325
321.551
319.674
498.325
321.551
513.593
307.536
321.551
319.674
498.325
321.551
513.593
1332.5
321.551
319.674
513.593
321.551
498.325
319.674
319.674
321.551
319.674
513.593
513.593
498.325
1318.29
321.551
513.593
319.674
513.593
513.593
321.551
319.674
513.593
513.593
498.325
498.325
319.674
319.674
498.325
513.593
513.593
321.551
319.674
498.325
498.325
319.674
319.674
321.551
321.551
498.325
513.593
513.593
513.593
513.593
321.551
498.325
321.551
321.551
513.593
498.325
319.674
319.674
513.593
498.325
319.674
513.593
513.593
498.325
319.674
513.593
498.325
321.551
498.325
498.325
319.674
321.551
498.325
321.551
319.674
498.325
321.551
319.674
498.325
498.325
319.674
319.674
319.674
321.551
321.551
513.593
513.593
498.325
498.325
321.551
498.325
513.593
333.279
321.551
498.325
498.325
498.325
319.674
321.551
321.551
321.551
498.325
319.674
319.674
1224.51
498.325
321.551
319.674
321.551
321.551
321.551
498.325
321.551
321.551
319.674
498.325
321.551
498.325
319.674
321.551
319.674
321.551
319.674
498.325
321.551
498.325
321.551
498.325
498.325
498.325
319.674
513.593
321.551
498.325
319.674
321.551
513.593
319.674
1249.18
513.593
513.593
498.325
498.325
498.325
319.674
319.674
319.674
319.674
319.674
513.593
321.551
498.325
513.593
319.674
319.674
498.325
327.124
498.325
321.551
498.325
498.325
498.325
513.593
513.593
332.177
498.325
321.551
498.325
513.593
498.325
513.593
513.593
319.674
321.551
319.674
498.325
513.593
498.325
498.325
513.593
498.325
513.593
321.551
498.325
513.593
319.674
319.674
319.674
498.325
498.325
513.593
321.551
513.593
317.46
498.325
513.593
513.593
321.551
319.674
321.551
360.188
319.674
498.325
498.325
319.674
498.325
321.551
498.325
321.551
498.325
513.593
321.551
498.325
347.887
498.325
498.325
319.674
317.533
513.593
321.551
319.674
338.466
321.551
498.325
513.593
513.593
321.551
498.325
362.376
321.551
319.674
319.674
513.593
498.325
321.551
498.325
498.325
319.674
319.674
321.551
319.674
498.325
513.593
321.551
498.325
321.551
321.551
498.325
498.325
321.551
1383.35
319.674
319.674
498.325
498.325
319.674
332.336
498.325
513.593
513.593
321.551
345.984
513.593
498.325
498.325
513.593
513.593
319.674
498.325
319.674
498.325
319.674
319.674
1203.36
319.674
498.325
321.551
319.674
498.325
513.593
321.551
319.674
321.551
321.551
321.551
321.551
498.325
321.551
319.674
513.593
319.674
321.551
498.325
319.674
319.674
321.551
498.325
498.325
513.593
319.674
513.593
319.674
513.593
498.325
498.325
321.551
513.593
513.593
513.593
319.674
1238.62
498.325
319.674
321.551
513.593
513.593
319.674
498.325
319.674
319.674
513.593
321.551
513.593
321.551
319.674
321.551
319.674
321.551
321.551
498.325
321.551
319.674
319.674
498.325
319.674
513.593
498.325
513.593
319.674
321.551
498.325
513.593
498.325
319.674
498.325
498.325
319.674
319.674
321.551
321.551
498.325
498.325
319.674
498.325
321.551
498.325
513.593
347.887
513.593
319.674
498.325
513.593
498.325
498.325
498.325
513.593
513.593
498.325
498.325
321.551
498.325
319.674
319.674
319.674
319.674
321.551
498.325
319.674
498.325
321.551
498.325
321.551
321.551
513.593
321.551
498.325
319.674
321.551
319.674
513.593
319.674
498.325
325.592
513.593
513.593
321.551
513.593
498.325
498.325
513.593
319.674
321.551
321.551
321.551
513.593
319.674
513.593
319.674
319.674
321.551
321.551
321.551
319.674
319.674
513.593
321.551
321.551
513.593
498.325
319.674
498.325
308.689
498.325
513.593
498.325
1179.25
513.593
498.325
321.551
513.593
321.551
498.325
319.674
498.325
321.551
498.325
498.325
321.551
321.551
498.325
319.674
321.551
319.674
344.1
513.593
498.325
513.593
1370.56
319.674
498.325
319.674
498.325
498.325
319.674
319.674
498.325
321.551
319.674
319.674
319.674
498.325
319.674
321.551
498.325
498.325
498.325
513.593
498.325
319.674
498.325
319.674
513.593
321.551
319.674
321.551
498.325
513.593
513.593
498.325
319.674
321.551
513.593
319.674
311.79
513.593
513.593
319.674
498.325
328.16
319.674
321.551
513.593
498.325
498.325
498.325
321.551
1275.11
321.551
498.325
498.325
319.674
321.551
321.551
319.674
321.551
513.593
1248.59
513.593
498.325
319.674
321.551
321.551
321.551
321.551
321.551
513.593
498.325
498.325
498.325
513.593
498.325
498.325
319.674
319.674
319.674
319.674
319.674
498.325
319.674
498.325
332.449
513.593
498.325
321.551
498.325
1392.6
319.674
1347.31
319.674
319.674
319.674
319.674
321.551
321.551
319.674
321.551
513.593
308.689
498.325
321.551
321.551
319.674
513.593
319.674
513.593
321.551
321.551
321.551
321.551
498.325
319.674
498.325
321.551
319.674
319.674
1316.38
1310.15
1335.54
319.674
319.674
513.593
321.551
498.325
321.551
319.674
513.593
498.325
1015.33
319.674
321.551
498.325
319.674
498.325
321.551
498.325
498.325
1167.82
498.325
319.674
319.674
513.593
498.325
498.325
498.325
319.674
513.593
321.551
498.325
321.551
321.551
498.325
498.325
321.551
498.325
319.674
319.674
319.674
498.325
344.004
319.674
513.593
498.325
319.674
498.325
319.674
498.325
498.325
319.674
513.593
513.593
319.674
319.674
321.551
319.674
321.551
513.593
321.551
321.551
498.325
498.325
319.674
498.325
321.551
307.997
1172.99
498.325
321.551
1313.09
1082.91
311.941
319.674
513.593
498.325
319.674
498.325
498.325
513.593
513.593
498.325
319.674
319.674
498.325
498.325
319.674
513.593
319.674
321.551
321.551
498.325
498.325
319.674
1096.68
321.551
498.325
321.551
319.674
498.325
319.674
319.674
513.593
498.325
513.593
513.593
498.325
498.325
498.325
498.325
321.551
319.674
319.674
498.325
319.674
498.325
498.325
319.674
498.325
498.325
321.551
498.325
513.593
319.674
513.593
513.593
321.551
498.325
321.551
321.551
319.674
319.674
498.325
321.551
344.304
498.325
498.325
321.551
498.325
498.325
319.674
319.674
319.674
513.593
319.674
498.325
361.986
319.674
498.325
498.325
498.325
319.674
319.674
498.325
498.325
498.325
513.593
321.551
513.593
319.674
513.593
513.593
319.674
321.551
319.674
513.593
321.551
319.674
321.551
1192.31
319.674
1228.12
513.593
498.325
498.325
513.593
513.593
513.593
321.551
321.551
513.593
498.325
498.325
319.674
498.325
498.325
498.325
513.593
513.593
319.674
319.674
321.551
498.325
321.551
321.551
319.674
513.593
319.674
321.551
321.551
326.196
321.551
498.325
1224.99
1310.91
498.325
498.325
319.674
513.593
513.593
321.551
498.325
513.593
498.325
1162.8
498.325
498.325
513.593
319.674
513.593
513.593
498.325
513.593
498.325
319.674
513.593
498.325
319.674
319.674
319.674
513.593
513.593
498.325
321.551
498.325
513.593
321.551
498.325
498.325
498.325
321.551
498.325
321.551
321.551
319.674
513.593
319.674
344.304
513.593
1275.11
319.674
321.551
513.593
498.325
498.325
319.674
498.325
513.593
498.325
321.551
321.551
319.674
321.551
513.593
498.325
498.325
319.674
321.551
498.325
321.551
321.551
513.593
513.593
513.593
321.551
321.551
321.551
498.325
321.551
1238.62
321.551
498.325
498.325
498.325
321.551
319.674
319.674
319.674
513.593
319.674
319.674
1192.59
498.325
321.551
321.551
319.674
498.325
319.674
498.325
319.674
321.551
319.674
317.533
513.593
498.325
513.593
321.551
319.674
319.674
319.674
498.325
321.551
498.325
321.551
319.674
321.551
513.593
319.674
498.325
321.551
321.551
319.674
513.593
319.674
319.674
319.674
319.674
321.551
1258.75
321.551
319.674
498.325
513.593
513.593
1102.06
498.325
498.325
1104.45
498.325
319.674
319.674
513.593
321.551
498.325
498.325
498.325
319.674
513.593
513.593
321.551
319.674
321.551
321.551
321.551
498.325
321.551
321.551
319.674
321.551
498.325
349.638
498.325
513.593
513.593
319.674
513.593
498.325
498.325
498.325
498.325
498.325
1235.41
498.325
321.551
321.551
319.674
498.325
319.674
498.325
319.674
321.551
498.325
308.906
319.674
321.551
321.551
319.674
1163.77
319.674
321.417
498.325
321.551
498.325
321.551
498.325
319.674
319.674
498.325
498.325
513.593
498.325
513.593
498.325
319.674
319.674
319.674
513.593
321.551
498.325
319.674
513.593
321.551
498.325
498.325
513.593
498.325
319.674
319.674
513.593
319.674
321.551
513.593
498.325
319.674
321.551
498.325
321.551
321.551
319.674
319.674
319.674
513.593
498.325
513.593
513.593
321.551
319.674
321.551
316.481
319.674
498.325
1300.37
513.593
319.674
320.491
319.674
319.674
498.325
319.674
321.551
321.551
321.551
319.674
321.551
498.325
498.325
498.325
321.551
498.325
498.325
319.674
314.344
319.674
307.436
498.325
321.551
498.325
321.551
321.551
498.325
319.674
513.593
513.593
513.593
319.674
513.593
513.593
498.325
513.593
513.593
498.325
513.593
513.593
1193.41
319.674
498.325
498.325
321.551
321.551
319.674
319.674
321.551
498.325
498.325
321.551
513.593
513.593
321.551
498.325
513.593
321.551
321.551
319.674
498.325
498.325
319.674
498.325
498.325
319.674
513.593
314.864
319.674
319.674
319.674
498.325
498.325
498.325
319.674
498.325
498.325
498.325
498.325
513.593
498.325
321.551
513.593
498.325
498.325
321.551
498.325
319.674
498.325
1185.77
321.551
498.325
513.593
319.674
319.674
513.593
513.593
1272.81
319.674
1150.09
498.325
1082.91
513.593
498.325
513.593
513.593
321.551
319.674
513.593
498.325
319.674
321.551
319.674
513.593
319.674
319.674
321.551
321.551
498.325
513.593
498.325
498.325
321.551
498.325
321.551
498.325
513.593
513.593
319.674
310.691
513.593
498.325
319.674
1169.75
321.551
319.674
321.551
319.674
319.674
321.551
498.325
513.593
513.593
498.325
319.674
319.674
513.593
319.674
513.593
498.325
498.325
513.593
498.325
321.551
319.674
498.325
513.593
321.551
321.551
498.325
319.674
498.325
319.674
319.674
319.674
498.325
321.551
319.674
319.674
321.551
513.593
309.209
513.593
513.593
319.674
319.674
513.593
498.325
321.551
319.674
319.674
513.593
513.593
498.325
321.551
321.551
513.593
321.551
319.674
1221.61
319.674
321.551
498.325
513.593
513.593
498.325
498.325
498.325
498.325
498.325
321.551
513.593
316.251
513.593
513.593
321.551
498.325
498.325
498.325
513.593
319.674
498.325
513.593
321.551
498.325
513.593
498.325
321.551
319.674
321.551
319.674
513.593
513.593
498.325
513.593
498.325
498.325
513.593
498.325
498.325
319.674
321.551
321.551
321.551
334.645
513.593
513.593
321.551
321.551
513.593
513.593
498.325
319.674
498.325
498.325
498.325
319.674
498.325
319.674
321.551
326.125
319.674
498.325
321.551
498.325
498.325
513.593
321.551
498.325
321.551
318.371
321.551
319.674
498.325
513.593
319.674
319.674
316.481
321.551
321.551
319.674
513.593
319.674
319.674
498.325
1300.49
498.325
319.674
319.674
319.674
498.325
498.325
498.325
321.551
498.325
321.551
1074.53
321.551
319.674
319.674
319.674
498.325
321.551
513.593
321.551
319.674
321.551
498.325
513.593
513.593
498.325
513.593
513.593
321.551
498.325
513.593
319.674
319.674
321.551
498.325
498.325
513.593
513.593
321.551
498.325
513.593
513.593
321.551
498.325
1292.16
319.674
498.325
321.551
513.593
319.674
498.325
513.593
321.551
498.325
319.674
513.593
498.325
319.674
321.551
513.593
498.325
498.325
319.674
498.325
513.593
319.674
513.593
321.551
321.551
1364.21
321.551
319.674
319.674
319.674
359.091
513.593
319.674
321.551
1189.86
321.551
498.325
513.593
513.593
498.325
513.593
319.674
513.593
321.551
321.551
321.551
319.674
321.551
319.674
319.674
321.551
513.593
321.551
321.551
513.593
319.674
319.674
321.551
313.893
513.593
319.674
319.674
513.593
321.551
513.593
513.593
319.674
498.325
498.325
319.674
498.325
321.551
347.887
321.551
319.674
319.674
319.674
319.674
319.674
322.194
498.325
513.593
1325.1
321.551
319.674
498.325
319.674
319.674
513.593
319.674
321.551
319.674
319.674
319.674
498.325
321.551
319.674
498.325
319.674
513.593
321.551
319.674
321.551
498.325
513.593
321.551
498.325
498.325
319.674
319.674
319.674
498.325
321.551
307.536
498.325
498.325
319.674
319.674
321.551
513.593
513.593
513.593
319.674
321.551
319.674
513.593
498.325
319.674
319.674
321.551
321.551
319.674
498.325
321.551
513.593
321.551
498.325
498.325
321.551
321.551
498.325
1073.93
321.551
513.593
498.325
498.325
1138.67
498.325
498.325
513.593
319.674
319.674
513.593
321.551
513.593
321.551
319.674
513.593
319.674
319.674
498.325
319.674
1015.33
1080.57
498.325
498.325
321.551
321.551
319.674
513.593
319.674
513.593
319.674
319.674
498.325
513.593
498.325
319.674
343.351
321.551
319.674
513.593
319.674
498.325
319.674
498.325
319.674
498.325
498.325
321.551
319.674
513.593
319.674
498.325
321.551
498.325
513.593
513.593
513.593
319.674
498.325
513.593
1167.82
513.593
513.593
319.674
498.325
319.674
319.674
321.551
319.674
321.551
319.674
498.325
513.593
513.593
321.551
321.551
498.325
319.674
319.674
319.674
319.674
498.325
498.325
321.551
321.551
319.674
319.674
1221.27
308.273
513.593
498.325
498.325
319.674
498.325
315.741
513.593
319.674
498.325
513.593
321.551
498.325
321.551
319.674
321.551
1297.23
513.593
321.551
319.674
319.674
319.674
321.551
513.593
321.551
319.674
498.325
319.674
321.551
319.674
513.593
321.551
321.551
513.593
498.325
1167.82
319.674
319.674
498.325
498.325
1366.31
513.593
319.674
319.674
498.325
513.593
319.674
513.593
498.325
498.325
319.674
321.551
513.593
1239.59
513.593
319.674
513.593
513.593
321.551
321.551
321.551
321.551
498.325
513.593
513.593
513.593
321.551
319.674
321.551
319.674
498.325
498.325
498.325
498.325
513.593
498.325
498.325
347.881
321.551
319.674
319.674
513.593
513.593
498.325
498.325
498.325
319.674
1089.48
321.551
321.551
319.674
513.593
513.593
319.674
321.551
319.674
513.593
321.551
498.325
498.325
319.674
319.674
319.674
319.674
321.551
321.551
321.551
321.551
319.674
319.674
498.325
319.674
498.325
321.551
498.325
498.325
498.325
319.674
319.674
1303.89
321.551
498.325
513.593
498.325
513.593
319.674
498.325
1181.37
319.674
313.446
513.593
498.325
498.325
1158.96
319.674
319.674
319.674
513.593
312.639
319.674
319.674
1298.45
513.593
319.674
321.551
321.551
321.551
319.674
321.551
513.593
319.674
307.436
321.551
498.325
498.325
498.325
498.325
498.325
319.674
513.593
1294.38
498.325
498.325
498.325
321.551
319.674
319.674
498.325
319.674
319.674
319.674
319.674
321.551
498.325
498.325
513.593
319.674
498.325
319.674
513.593
319.674
513.593
1161.3
498.325
321.551
513.593
513.593
321.551
513.593
367.106
498.325
319.674
321.551
321.551
1306.93
321.551
498.325
513.593
319.674
498.325
319.674
319.674
321.551
321.551
321.551
498.325
321.551
1252.6
513.593
325.592
513.593
513.593
1160.63
319.674
498.325
498.325
498.325
319.674
513.593
498.325
321.551
319.674
319.674
513.593
498.325
309.114
498.325
498.325
321.551
513.593
498.325
513.593
498.325
513.593
498.325
498.325
364.842
321.551
498.325
513.593
319.674
319.674
513.593
498.325
321.551
319.674
321.551
498.325
498.325
319.674
513.593
498.325
513.593
334.645
319.674
319.674
321.551
321.551
321.551
321.551
319.674
498.325
513.593
498.325
1159.85
513.593
498.325
321.551
498.325
321.551
319.674
498.325
319.674
321.551
513.593
513.593
343.724
498.325
498.325
321.551
498.325
498.325
498.325
498.325
513.593
498.325
513.593
498.325
498.325
321.551
513.593
513.593
498.325
513.593
321.551
321.551
321.551
321.551
498.325
513.593
319.674
498.325
498.325
513.593
319.674
319.674
498.325
513.593
321.551
319.674
513.593
498.325
513.593
513.593
498.325
319.674
498.325
513.593
321.551
321.551
498.325
513.593
319.674
319.674
498.325
513.593
498.325
498.325
1304.77
319.674
321.551
321.551
321.551
321.551
498.325
319.674
319.674
321.551
498.325
513.593
498.325
513.593