<?xml version="1.0"?>
<VTKFile type="ImageData" version="0.1" byte_order="LittleEndian">
  <ImageData Origin="0 0 0" Spacing="1e-05 1e-05 1e-05" WholeExtent="0 191 0 191 0 0">
    <Piece Extent="0 191 0 191 0 0">
      <CellData Scalars="T">
        <DataArray type="Float32" Name="T" format="ascii" NumberOfComponents="1">
697.353
15000
15000
15000
15000
15000
15000
15000
14999.9
14999.9
14999.9
14999.9
14999.8
14999.8
14999.7
14999.7
14999.6
14999.5
14999.5
14999.4
14999.3
14999.3
14999.2
14999.1
14999.1
14999
14999
14999
14999
14998.9
14999
14999
14999
14999
14999.1
14999.1
14999.2
14999.2
14999.3
14999.3
14999.4
14999.5
14999.5
14999.6
14999.6
14999.6
14999.7
14999.7
14999.7
14999.8
14999.8
14999.8
14999.8
14999.7
14999.7
14999.7
14999.6
14999.6
14999.5
14999.4
14999.2
14999.1
14998.9
14998.6
14998.3
14998
14997.6
14997.1
14996.5
14995.8
14994.9
14993.9
14992.8
14991.4
14989.8
14988
14985.8
14983.3
14980.4
14977.1
14973.2
14968.7
14963.6
14957.8
14951.1
14943.5
14934.9
14925.1
14914
14901.5
14887.5
14871.7
14854.1
14834.4
14812.5
14788.1
14761
14731.1
14698.1
14661.7
14621.8
14578
14530.2
14478.1
14421.4
14359.8
14293.2
14221.2
14143.7
14060.3
13970.9
13875.3
13773.2
13664.5
13549
13426.6
13297.1
13160.6
13017
12866.1
12708.1
12543.1
12371
12192
12006.3
11814.1
11615.5
11411
11200.9
10985.4
10764.9
10540
10311
10078.4
9842.74
9604.59
9364.47
9122.96
8880.65
8638.14
8396.02
8154.9
7915.39
7678.07
7443.54
7212.37
6985.1
6762.29
6544.42
6331.99
6125.45
5925.23
5731.69
5545.21
5366.09
5194.6
5030.99
4875.45
4728.14
4589.17
4458.63
4336.57
4222.97
4117.83
4021.07
3932.6
3852.3
3780.01
3715.55
3658.73
3609.32
3567.06
3531.71
3502.98
3480.57
3464.17
3453.44
3448.01
3447.46
3451.28
3458.78
3468.96
3480.2
3489.78
3492.81
3480.3
3435.39
3325.99
3089.75
2601.63
1595.83
336.688
2443.22
15000
15000
15000
15000
15000
15000
15000
14999.9
14999.9
14999.9
14999.9
14999.8
14999.8
14999.7
14999.6
14999.6
14999.5
14999.4
14999.3
14999.3
14999.2
14999.1
14999.1
14999
14998.9
14998.9
14998.9
14998.9
14998.9
14998.9
14998.9
14998.9
14998.9
14999
14999
14999.1
14999.2
14999.2
14999.3
14999.4
14999.4
14999.5
14999.5
14999.6
14999.6
14999.7
14999.7
14999.7
14999.7
14999.8
14999.8
14999.8
14999.7
14999.7
14999.7
14999.6
14999.6
14999.5
14999.4
14999.2
14999.1
14998.9
14998.6
14998.3
14998
14997.6
14997.1
14996.5
14995.8
14994.9
14993.9
14992.8
14991.4
14989.8
14988
14985.8
14983.3
14980.4
14977.1
14973.2
14968.7
14963.6
14957.8
14951.1
14943.5
14934.9
14925.1
14914
14901.6
14887.5
14871.8
14854.1
14834.4
14812.5
14788.1
14761
14731.1
14698.1
14661.8
14621.8
14578.1
14530.3
14478.2
14421.5
14359.9
14293.3
14221.3
14143.8
14060.4
13971
13875.4
13773.3
13664.6
13549.1
13426.7
13297.3
13160.8
13017.1
12866.3
12708.3
12543.2
12371.1
12192.2
12006.5
11814.2
11615.7
11411.2
11201
10985.5
10765.1
10540.1
10311.1
10078.5
9842.85
9604.68
9364.54
9123.01
8880.67
8638.13
8395.98
8154.83
7915.28
7677.92
7443.35
7212.13
6984.82
6761.95
6544.03
6331.55
6124.95
5924.66
5731.07
5544.52
5365.33
5193.78
5030.1
4874.49
4727.1
4588.06
4457.45
4335.31
4221.64
4116.42
4019.58
3931.04
3850.66
3778.29
3713.76
3656.86
3607.37
3565.05
3529.62
3500.82
3478.34
3461.88
3451.08
3445.59
3444.99
3448.75
3456.2
3466.33
3477.56
3487.17
3490.34
3478.26
3434.63
3329.07
3105.3
2661.13
1825.04
511.448
2552.41
15000
15000
15000
15000
15000
15000
15000
14999.9
14999.9
14999.9
14999.8
14999.8
14999.7
14999.7
14999.6
14999.5
14999.4
14999.3
14999.2
14999.2
14999.1
14999
14998.9
14998.8
14998.8
14998.7
14998.7
14998.7
14998.7
14998.7
14998.7
14998.7
14998.8
14998.8
14998.9
14999
14999
14999.1
14999.2
14999.2
14999.3
14999.4
14999.5
14999.5
14999.6
14999.6
14999.7
14999.7
14999.7
14999.7
14999.7
14999.7
14999.7
14999.7
14999.7
14999.6
14999.5
14999.5
14999.4
14999.2
14999.1
14998.9
14998.6
14998.3
14998
14997.6
14997.1
14996.5
14995.8
14994.9
14993.9
14992.8
14991.4
14989.8
14988
14985.8
14983.3
14980.4
14977.1
14973.2
14968.7
14963.6
14957.8
14951.1
14943.5
14934.9
14925.1
14914.1
14901.6
14887.6
14871.8
14854.2
14834.5
14812.5
14788.2
14761.1
14731.2
14698.2
14661.9
14622
14578.2
14530.4
14478.3
14421.6
14360.1
14293.5
14221.5
14144
14060.7
13971.3
13875.6
13773.6
13664.9
13549.4
13427
13297.6
13161.1
13017.5
12866.6
12708.7
12543.6
12371.5
12192.5
12006.8
11814.6
11616.1
11411.6
11201.4
10985.9
10765.4
10540.4
10311.4
10078.8
9843.08
9604.87
9364.69
9123.11
8880.72
8638.12
8395.91
8154.69
7915.06
7677.63
7442.97
7211.66
6984.26
6761.29
6543.26
6330.67
6123.96
5923.55
5729.83
5543.15
5363.83
5192.14
5028.32
4872.57
4725.04
4585.85
4455.09
4332.8
4218.98
4113.6
4016.62
3927.92
3847.38
3774.87
3710.18
3653.14
3603.5
3561.03
3525.46
3496.52
3473.9
3457.3
3446.38
3440.77
3440.04
3443.7
3451.05
3461.1
3472.28
3481.92
3485.29
3473.81
3431.74
3330.18
3116.32
2695.29
1900.44
526.983
2517.43
15000
15000
15000
15000
15000
15000
14999.9
14999.9
14999.9
14999.8
14999.8
14999.7
14999.7
14999.6
14999.5
14999.4
14999.3
14999.2
14999.1
14999
14998.9
14998.8
14998.7
14998.6
14998.5
14998.5
14998.4
14998.4
14998.4
14998.4
14998.4
14998.5
14998.5
14998.6
14998.7
14998.7
14998.8
14998.9
14999
14999.1
14999.2
14999.3
14999.3
14999.4
14999.5
14999.5
14999.6
14999.6
14999.7
14999.7
14999.7
14999.7
14999.7
14999.7
14999.7
14999.6
14999.5
14999.5
14999.4
14999.2
14999.1
14998.9
14998.6
14998.3
14998
14997.6
14997.1
14996.5
14995.8
14994.9
14993.9
14992.8
14991.4
14989.8
14988
14985.8
14983.3
14980.4
14977.1
14973.2
14968.8
14963.7
14957.8
14951.1
14943.6
14934.9
14925.2
14914.1
14901.6
14887.6
14871.9
14854.2
14834.6
14812.6
14788.3
14761.2
14731.3
14698.3
14662
14622.1
14578.4
14530.6
14478.5
14421.8
14360.3
14293.7
14221.8
14144.3
14061
13971.6
13876
13774
13665.3
13549.8
13427.5
13298.1
13161.6
13018
12867.2
12709.2
12544.1
12372.1
12193.1
12007.4
11815.2
11616.7
11412.1
11201.9
10986.4
10765.9
10540.9
10311.8
10079.1
9843.41
9605.15
9364.9
9123.26
8880.79
8638.1
8395.8
8154.48
7914.74
7677.19
7442.41
7210.96
6983.42
6760.3
6542.11
6329.36
6122.47
5921.89
5727.98
5541.11
5361.6
5189.71
5025.68
4869.71
4721.96
4582.56
4451.57
4329.06
4215.01
4109.41
4012.19
3923.26
3842.5
3769.76
3704.85
3647.58
3597.72
3555.03
3519.25
3490.1
3467.28
3450.48
3439.36
3433.56
3432.66
3436.15
3443.35
3453.28
3464.38
3474.01
3477.55
3466.6
3425.82
3327
3118.16
2703.02
1899.17
524.045
2441.22
15000
15000
15000
15000
15000
15000
14999.9
14999.9
14999.9
14999.8
14999.8
14999.7
14999.6
14999.5
14999.4
14999.3
14999.1
14999
14998.9
14998.7
14998.6
14998.5
14998.4
14998.3
14998.2
14998.1
14998.1
14998
14998
14998
14998.1
14998.1
14998.2
14998.3
14998.4
14998.5
14998.6
14998.7
14998.8
14998.9
14999
14999.1
14999.2
14999.3
14999.4
14999.4
14999.5
14999.6
14999.6
14999.6
14999.7
14999.7
14999.7
14999.7
14999.6
14999.6
14999.5
14999.4
14999.3
14999.2
14999.1
14998.9
14998.6
14998.3
14998
14997.6
14997.1
14996.5
14995.8
14994.9
14994
14992.8
14991.4
14989.9
14988
14985.9
14983.3
14980.4
14977.1
14973.2
14968.8
14963.7
14957.8
14951.2
14943.6
14935
14925.2
14914.2
14901.7
14887.7
14872
14854.3
14834.7
14812.8
14788.4
14761.4
14731.5
14698.5
14662.2
14622.3
14578.6
14530.9
14478.8
14422.1
14360.7
14294.1
14222.2
14144.7
14061.4
13972.1
13876.5
13774.5
13665.8
13550.4
13428.1
13298.7
13162.2
13018.6
12867.9
12709.9
12544.9
12372.8
12193.8
12008.2
11815.9
11617.4
11412.9
11202.7
10987.1
10766.6
10541.5
10312.4
10079.7
9843.87
9605.53
9365.2
9123.46
8880.89
8638.09
8395.66
8154.21
7914.33
7676.62
7441.67
7210.05
6982.31
6758.99
6540.6
6327.63
6120.51
5919.69
5725.54
5538.42
5358.64
5186.48
5022.18
4865.93
4717.9
4578.2
4446.92
4324.11
4209.76
4103.86
4006.34
3917.1
3836.04
3762.99
3697.79
3640.22
3590.07
3547.09
3511.02
3481.59
3458.5
3441.44
3430.07
3424.02
3422.89
3426.15
3433.15
3442.9
3453.86
3463.45
3467.1
3456.54
3416.68
3319.6
3113.47
2701.56
1902.72
522.878
2435
15000
15000
15000
15000
15000
14999.9
14999.9
14999.9
14999.8
14999.8
14999.7
14999.6
14999.5
14999.4
14999.2
14999.1
14998.9
14998.8
14998.6
14998.4
14998.3
14998.1
14998
14997.9
14997.8
14997.7
14997.6
14997.6
14997.6
14997.6
14997.6
14997.7
14997.8
14997.9
14998
14998.1
14998.2
14998.4
14998.5
14998.6
14998.8
14998.9
14999
14999.1
14999.2
14999.3
14999.4
14999.5
14999.5
14999.6
14999.6
14999.6
14999.6
14999.6
14999.6
14999.6
14999.5
14999.4
14999.3
14999.2
14999
14998.9
14998.6
14998.3
14998
14997.6
14997.1
14996.5
14995.8
14994.9
14994
14992.8
14991.5
14989.9
14988
14985.9
14983.4
14980.5
14977.1
14973.3
14968.8
14963.7
14957.9
14951.2
14943.6
14935
14925.3
14914.2
14901.8
14887.8
14872.1
14854.5
14834.8
14812.9
14788.5
14761.6
14731.7
14698.7
14662.4
14622.6
14578.9
14531.2
14479.1
14422.5
14361.1
14294.5
14222.6
14145.2
14061.9
13972.6
13877.1
13775.1
13666.5
13551.1
13428.8
13299.5
13163.1
13019.5
12868.7
12710.8
12545.8
12373.7
12194.8
12009.1
11816.9
11618.3
11413.8
11203.5
10987.9
10767.4
10542.3
10313.1
10080.3
9844.44
9606.01
9365.58
9123.72
8881.03
8638.08
8395.5
8153.88
7913.82
7675.92
7440.76
7208.92
6980.95
6757.39
6538.74
6325.49
6118.1
5916.98
5722.53
5535.1
5354.99
5182.5
5017.86
4861.26
4712.87
4572.82
4441.17
4317.99
4203.27
4096.99
3999.09
3909.48
3828.04
3754.62
3689.04
3631.1
3580.59
3537.25
3500.83
3471.06
3447.63
3430.24
3418.55
3412.2
3410.77
3413.75
3420.49
3430.01
3440.8
3450.28
3453.96
3443.68
3404.52
3308.88
3105.5
2699.07
1913.42
526.313
2435
15000
15000
15000
15000
15000
14999.9
14999.9
14999.9
14999.8
14999.7
14999.6
14999.5
14999.4
14999.2
14999.1
14998.9
14998.7
14998.5
14998.3
14998.1
14997.9
14997.7
14997.5
14997.4
14997.3
14997.1
14997.1
14997
14997
14997
14997.1
14997.1
14997.2
14997.4
14997.5
14997.6
14997.8
14998
14998.1
14998.3
14998.5
14998.6
14998.8
14998.9
14999
14999.2
14999.3
14999.4
14999.4
14999.5
14999.5
14999.6
14999.6
14999.6
14999.6
14999.5
14999.5
14999.4
14999.3
14999.2
14999
14998.8
14998.6
14998.3
14998
14997.6
14997.1
14996.5
14995.8
14994.9
14994
14992.8
14991.5
14989.9
14988
14985.9
14983.4
14980.5
14977.1
14973.3
14968.8
14963.8
14957.9
14951.3
14943.7
14935.1
14925.3
14914.3
14901.9
14887.9
14872.2
14854.6
14835
14813.1
14788.7
14761.8
14731.9
14699
14662.7
14622.9
14579.3
14531.6
14479.5
14423
14361.5
14295
14223.2
14145.8
14062.6
13973.3
13877.8
13775.9
13667.3
13552
13429.7
13300.4
13164
13020.5
12869.7
12711.9
12546.9
12374.8
12195.9
12010.2
11818
11619.5
11414.9
11204.6
10989
10768.4
10543.2
10314
10081.1
9845.13
9606.59
9366.04
9124.05
8881.2
8638.09
8395.33
8153.51
7913.24
7675.11
7439.7
7207.6
6979.36
6755.5
6536.55
6322.98
6115.25
5913.79
5718.97
5531.17
5350.68
5177.79
5012.74
4855.73
4706.92
4566.44
4434.36
4310.73
4195.57
4088.84
3990.5
3900.44
3818.56
3744.69
3678.67
3620.29
3569.34
3525.58
3488.74
3458.56
3434.73
3416.94
3404.87
3398.15
3396.37
3399.02
3405.45
3414.69
3425.24
3434.57
3438.21
3428.11
3389.52
3295.2
3094.57
2693.58
1916.52
546.606
2435
15000
15000
15000
15000
15000
14999.9
14999.9
14999.8
14999.8
14999.7
14999.6
14999.4
14999.3
14999.1
14998.9
14998.7
14998.5
14998.2
14998
14997.7
14997.5
14997.2
14997
14996.8
14996.7
14996.5
14996.5
14996.4
14996.4
14996.4
14996.4
14996.5
14996.6
14996.8
14997
14997.1
14997.3
14997.5
14997.7
14997.9
14998.1
14998.3
14998.5
14998.7
14998.8
14999
14999.1
14999.2
14999.3
14999.4
14999.5
14999.5
14999.5
14999.5
14999.5
14999.5
14999.5
14999.4
14999.3
14999.2
14999
14998.8
14998.6
14998.3
14998
14997.6
14997.1
14996.5
14995.8
14994.9
14994
14992.8
14991.5
14989.9
14988
14985.9
14983.4
14980.5
14977.2
14973.3
14968.9
14963.8
14958
14951.3
14943.8
14935.2
14925.4
14914.4
14902
14888
14872.3
14854.8
14835.1
14813.3
14789
14762
14732.2
14699.3
14663.1
14623.3
14579.7
14532
14480
14423.5
14362.1
14295.6
14223.8
14146.5
14063.3
13974.1
13878.7
13776.8
13668.2
13552.9
13430.7
13301.5
13165.1
13021.6
12870.9
12713.1
12548.1
12376.1
12197.2
12011.5
11819.3
11620.7
11416.2
11205.9
10990.2
10769.5
10544.3
10315
10082
9845.94
9607.28
9366.59
9124.44
8881.42
8638.12
8395.15
8153.1
7912.58
7674.19
7438.51
7206.11
6977.54
6753.35
6534.05
6320.11
6112
5910.13
5714.9
5526.66
5345.73
5172.39
5006.87
4849.39
4700.09
4559.11
4426.53
4302.4
4186.72
4079.48
3980.62
3890.05
3807.65
3733.26
3666.73
3607.85
3556.4
3512.14
3474.82
3444.15
3419.86
3401.62
3389.11
3381.97
3379.78
3382.04
3388.11
3397.02
3407.28
3416.39
3419.93
3409.93
3371.8
3278.58
3080.33
2684.41
1918.86
550.041
2435
15000
15000
15000
15000
14999.9
14999.9
14999.9
14999.8
14999.7
14999.6
14999.5
14999.3
14999.1
14998.9
14998.7
14998.4
14998.2
14997.9
14997.6
14997.3
14997
14996.7
14996.5
14996.2
14996
14995.9
14995.8
14995.7
14995.7
14995.7
14995.7
14995.8
14996
14996.1
14996.3
14996.5
14996.8
14997
14997.3
14997.5
14997.7
14998
14998.2
14998.4
14998.6
14998.8
14998.9
14999.1
14999.2
14999.3
14999.4
14999.4
14999.5
14999.5
14999.5
14999.5
14999.4
14999.4
14999.3
14999.2
14999
14998.8
14998.6
14998.3
14998
14997.6
14997.1
14996.5
14995.8
14995
14994
14992.8
14991.5
14989.9
14988.1
14985.9
14983.4
14980.5
14977.2
14973.4
14968.9
14963.9
14958
14951.4
14943.8
14935.3
14925.5
14914.5
14902.1
14888.2
14872.5
14854.9
14835.3
14813.5
14789.2
14762.3
14732.5
14699.6
14663.4
14623.7
14580.1
14532.5
14480.6
14424
14362.7
14296.3
14224.6
14147.3
14064.2
13975
13879.6
13777.8
13669.3
13554.1
13431.9
13302.7
13166.4
13022.9
12872.3
12714.5
12549.5
12377.6
12198.7
12013
11820.8
11622.2
11417.6
11207.3
10991.6
10770.9
10545.6
10316.1
10083.1
9846.88
9608.08
9367.24
9124.91
8881.7
8638.18
8394.97
8152.67
7911.88
7673.19
7437.19
7204.45
6975.53
6750.96
6531.26
6316.9
6108.36
5906.04
5710.34
5521.62
5340.19
5166.33
5000.29
4842.26
4692.42
4550.88
4417.74
4293.03
4176.78
4068.96
3969.52
3878.36
3795.37
3720.41
3653.3
3593.85
3541.83
3497.01
3459.14
3427.94
3403.12
3384.37
3371.36
3363.73
3361.08
3362.9
3368.55
3377.08
3387.01
3395.85
3399.23
3389.25
3351.43
3258.97
3062.16
2668.53
1904.6
532.78
2435
15000
15000
15000
15000
14999.9
14999.9
14999.8
14999.8
14999.7
14999.5
14999.4
14999.2
14999
14998.8
14998.5
14998.2
14997.9
14997.5
14997.2
14996.8
14996.5
14996.2
14995.9
14995.6
14995.3
14995.2
14995
14994.9
14994.9
14994.9
14995
14995.1
14995.2
14995.4
14995.7
14995.9
14996.2
14996.4
14996.7
14997
14997.3
14997.6
14997.8
14998.1
14998.3
14998.5
14998.7
14998.9
14999
14999.2
14999.3
14999.3
14999.4
14999.4
14999.5
14999.4
14999.4
14999.4
14999.3
14999.2
14999
14998.8
14998.6
14998.3
14998
14997.6
14997.1
14996.5
14995.8
14995
14994
14992.8
14991.5
14989.9
14988.1
14985.9
14983.5
14980.6
14977.2
14973.4
14969
14963.9
14958.1
14951.5
14943.9
14935.4
14925.6
14914.7
14902.3
14888.3
14872.7
14855.1
14835.6
14813.8
14789.5
14762.6
14732.9
14700
14663.9
14624.1
14580.6
14533
14481.2
14424.7
14363.4
14297.1
14225.4
14148.1
14065.1
13976
13880.7
13778.9
13670.5
13555.3
13433.2
13304.1
13167.8
13024.4
12873.8
12716.1
12551.1
12379.2
12200.3
12014.7
11822.4
11623.9
11419.3
11208.9
10993.1
10772.4
10547
10317.5
10084.3
9847.95
9609
9367.98
9125.46
8882.03
8638.28
8394.81
8152.23
7911.13
7672.11
7435.76
7202.65
6973.33
6748.35
6528.21
6313.39
6104.37
5901.55
5705.33
5516.07
5334.09
5159.67
4993.04
4834.42
4683.97
4541.81
4408.04
4282.7
4165.81
4057.35
3957.26
3865.45
3781.82
3706.21
3638.46
3578.37
3525.72
3480.28
3441.8
3410
3384.59
3365.27
3351.7
3343.54
3340.37
3341.7
3346.88
3354.98
3364.52
3373.05
3376.22
3366.18
3328.52
3236.49
3040.11
2645.49
1873.91
523.771
2435
15000
15000
15000
15000
14999.9
14999.9
14999.8
14999.7
14999.6
14999.5
14999.3
14999.1
14998.9
14998.6
14998.3
14997.9
14997.6
14997.2
14996.8
14996.4
14996
14995.6
14995.2
14994.9
14994.6
14994.4
14994.2
14994.1
14994.1
14994.1
14994.2
14994.3
14994.5
14994.7
14994.9
14995.2
14995.5
14995.8
14996.2
14996.5
14996.8
14997.2
14997.5
14997.8
14998
14998.3
14998.5
14998.7
14998.9
14999
14999.1
14999.2
14999.3
14999.4
14999.4
14999.4
14999.4
14999.3
14999.3
14999.1
14999
14998.8
14998.6
14998.3
14998
14997.6
14997.1
14996.5
14995.8
14995
14994
14992.9
14991.5
14989.9
14988.1
14986
14983.5
14980.6
14977.3
14973.4
14969
14964
14958.2
14951.6
14944
14935.5
14925.8
14914.8
14902.4
14888.5
14872.9
14855.4
14835.8
14814
14789.8
14763
14733.2
14700.4
14664.3
14624.7
14581.2
14533.7
14481.8
14425.4
14364.2
14297.9
14226.3
14149.1
14066.1
13977.1
13881.8
13780.1
13671.8
13556.7
13434.6
13305.6
13169.4
13026.1
12875.5
12717.8
12552.9
12381
12202.1
12016.5
11824.3
11625.7
11421.1
11210.7
10994.9
10774
10548.5
10318.9
10085.6
9849.15
9610.04
9368.83
9126.1
8882.43
8638.43
8394.68
8151.79
7910.36
7670.98
7434.25
7200.73
6970.99
6745.55
6524.93
6309.61
6100.06
5896.7
5699.91
5510.07
5327.48
5152.44
4985.18
4825.91
4674.79
4531.96
4397.51
4271.47
4153.88
4044.72
3943.92
3851.4
3767.06
3690.75
3622.29
3561.5
3508.17
3462.05
3422.89
3390.43
3364.38
3344.43
3330.26
3321.5
3317.76
3318.55
3323.21
3330.83
3339.95
3348.11
3351.01
3340.86
3303.31
3211.65
3015.84
2621.37
1848.75
518.815
2435
15000
15000
15000
15000
14999.9
14999.9
14999.8
14999.7
14999.6
14999.4
14999.2
14999
14998.7
14998.4
14998.1
14997.7
14997.3
14996.8
14996.4
14995.9
14995.5
14995
14994.6
14994.2
14993.9
14993.6
14993.4
14993.3
14993.2
14993.2
14993.3
14993.5
14993.6
14993.9
14994.2
14994.5
14994.8
14995.2
14995.6
14996
14996.3
14996.7
14997.1
14997.4
14997.7
14998
14998.3
14998.5
14998.7
14998.9
14999
14999.1
14999.2
14999.3
14999.3
14999.4
14999.3
14999.3
14999.2
14999.1
14999
14998.8
14998.6
14998.3
14998
14997.6
14997.1
14996.5
14995.8
14995
14994
14992.9
14991.5
14990
14988.1
14986
14983.5
14980.7
14977.3
14973.5
14969.1
14964
14958.3
14951.7
14944.1
14935.6
14925.9
14915
14902.6
14888.7
14873.1
14855.6
14836.1
14814.3
14790.2
14763.3
14733.7
14700.9
14664.8
14625.2
14581.8
14534.3
14482.5
14426.2
14365.1
14298.8
14227.3
14150.2
14067.3
13978.3
13883.1
13781.5
13673.2
13558.2
13436.2
13307.2
13171.1
13027.8
12877.3
12719.7
12554.9
12383
12204.1
12018.5
11826.3
11627.7
11423.1
11212.6
10996.8
10775.8
10550.3
10320.6
10087.1
9850.49
9611.2
9369.79
9126.83
8882.92
8638.63
8394.58
8151.36
7909.57
7669.81
7432.67
7198.72
6968.51
6742.58
6521.44
6305.59
6095.47
5891.52
5694.13
5503.65
5320.41
5144.7
4976.75
4816.78
4664.95
4521.39
4386.2
4259.42
4141.07
4031.14
3929.58
3836.3
3751.19
3674.11
3604.89
3543.35
3489.27
3442.41
3402.53
3369.36
3342.6
3321.97
3307.14
3297.74
3293.38
3293.57
3297.67
3304.77
3313.41
3321.16
3323.77
3313.48
3276.05
3184.97
2990.63
2599.89
1839.13
517.608
2435
15000
15000
15000
14999.9
14999.9
14999.9
14999.8
14999.7
14999.5
14999.4
14999.2
14998.9
14998.6
14998.3
14997.9
14997.4
14997
14996.5
14996
14995.5
14995
14994.5
14994
14993.6
14993.2
14992.9
14992.7
14992.5
14992.4
14992.4
14992.5
14992.6
14992.8
14993.1
14993.4
14993.8
14994.2
14994.6
14995
14995.4
14995.8
14996.3
14996.7
14997
14997.4
14997.7
14998
14998.3
14998.5
14998.7
14998.9
14999
14999.2
14999.2
14999.3
14999.3
14999.3
14999.3
14999.2
14999.1
14999
14998.8
14998.6
14998.3
14998
14997.6
14997.1
14996.5
14995.8
14995
14994
14992.9
14991.6
14990
14988.2
14986
14983.6
14980.7
14977.4
14973.6
14969.2
14964.1
14958.3
14951.8
14944.3
14935.7
14926.1
14915.1
14902.8
14888.9
14873.3
14855.9
14836.4
14814.7
14790.5
14763.7
14734.1
14701.4
14665.4
14625.8
14582.4
14535
14483.3
14427.1
14366
14299.8
14228.4
14151.3
14068.5
13979.6
13884.5
13783
13674.8
13559.8
13437.9
13309
13173
13029.8
12879.3
12721.7
12556.9
12385.1
12206.3
12020.7
11828.5
11629.9
11425.2
11214.8
10998.8
10777.8
10552.2
10322.3
10088.8
9851.96
9612.48
9370.86
9127.67
8883.48
8638.9
8394.53
8150.96
7908.79
7668.62
7431.04
7196.62
6965.92
6739.47
6517.78
6301.35
6090.63
5886.05
5688.01
5496.86
5312.93
5136.5
4967.82
4807.1
4654.51
4510.17
4374.18
4246.6
4127.45
4016.7
3914.32
3820.22
3734.29
3656.39
3586.36
3524.01
3469.12
3421.48
3380.81
3346.87
3319.37
3298.01
3282.46
3272.37
3267.34
3266.89
3270.38
3276.91
3285.03
3292.35
3294.62
3284.19
3246.95
3156.73
2964.69
2579.64
1832.09
520.282
2435
15000
15000
15000
14999.9
14999.9
14999.8
14999.8
14999.7
14999.5
14999.3
14999.1
14998.8
14998.5
14998.1
14997.7
14997.2
14996.7
14996.2
14995.6
14995.1
14994.5
14994
14993.5
14993
14992.6
14992.2
14992
14991.8
14991.7
14991.6
14991.7
14991.8
14992
14992.3
14992.7
14993.1
14993.5
14993.9
14994.4
14994.9
14995.3
14995.8
14996.3
14996.7
14997.1
14997.4
14997.8
14998.1
14998.3
14998.6
14998.8
14998.9
14999.1
14999.2
14999.2
14999.3
14999.3
14999.2
14999.2
14999.1
14999
14998.8
14998.6
14998.3
14998
14997.6
14997.1
14996.5
14995.8
14995
14994
14992.9
14991.6
14990
14988.2
14986.1
14983.6
14980.7
14977.4
14973.6
14969.2
14964.2
14958.4
14951.9
14944.4
14935.9
14926.2
14915.3
14903
14889.1
14873.6
14856.2
14836.7
14815
14790.9
14764.2
14734.6
14701.9
14666
14626.5
14583.2
14535.8
14484.2
14428
14367
14300.9
14229.5
14152.5
14069.8
13981
13886
13784.5
13676.4
13561.6
13439.8
13310.9
13175
13031.8
12881.5
12723.9
12559.2
12387.4
12208.6
12023.1
11830.9
11632.3
11427.6
11217
11001.1
10780
10554.2
10324.3
10090.5
9853.58
9613.9
9372.05
9128.61
8884.14
8639.25
8394.54
8150.6
7908.03
7667.43
7429.39
7194.48
6963.25
6736.25
6513.98
6296.94
6085.58
5880.34
5681.61
5489.75
5305.09
5127.9
4958.45
4796.93
4643.52
4498.36
4361.54
4233.11
4113.1
4001.49
3898.24
3803.27
3716.47
3637.7
3566.8
3503.59
3447.85
3399.36
3357.87
3323.11
3294.81
3272.66
3256.35
3245.52
3239.78
3238.64
3241.48
3247.4
3254.97
3261.81
3263.72
3253.14
3216.14
3126.91
2937.44
2558.32
1823.5
525.313
2435
15000
15000
15000
14999.9
14999.9
14999.8
14999.7
14999.6
14999.5
14999.3
14999
14998.8
14998.4
14998
14997.6
14997.1
14996.5
14996
14995.4
14994.7
14994.1
14993.5
14993
14992.5
14992
14991.6
14991.3
14991.1
14990.9
14990.9
14991
14991.1
14991.3
14991.6
14992
14992.4
14992.8
14993.3
14993.8
14994.3
14994.9
14995.4
14995.9
14996.3
14996.8
14997.2
14997.5
14997.9
14998.2
14998.4
14998.6
14998.8
14999
14999.1
14999.2
14999.2
14999.2
14999.2
14999.2
14999.1
14999
14998.8
14998.6
14998.3
14998
14997.6
14997.1
14996.5
14995.8
14995
14994.1
14992.9
14991.6
14990
14988.2
14986.1
14983.6
14980.8
14977.5
14973.7
14969.3
14964.3
14958.5
14952
14944.5
14936
14926.4
14915.5
14903.2
14889.4
14873.9
14856.5
14837.1
14815.4
14791.3
14764.7
14735.1
14702.5
14666.6
14627.1
14583.9
14536.6
14485.1
14428.9
14368
14302
14230.7
14153.9
14071.2
13982.5
13887.6
13786.2
13678.2
13563.4
13441.7
13313
13177.1
13034
12883.8
12726.3
12561.6
12389.9
12211.1
12025.6
11833.4
11634.8
11430.1
11219.5
11003.5
10782.3
10556.4
10326.4
10092.5
9855.34
9615.45
9373.37
9129.66
8884.9
8639.69
8394.62
8150.29
7907.3
7666.25
7427.73
7192.3
6960.52
6732.94
6510.07
6292.39
6080.36
5874.43
5674.98
5482.37
5296.93
5118.95
4948.68
4786.33
4632.07
4486.04
4348.33
4219.01
4098.1
3985.58
3881.42
3785.53
3697.81
3618.12
3546.31
3482.19
3425.55
3376.17
3333.8
3298.18
3269.03
3246.06
3228.94
3217.33
3210.83
3208.96
3211.11
3216.38
3223.35
3229.68
3231.22
3220.47
3183.7
3095.42
2908.2
2533.36
1803.82
522.755
2435
15000
15000
15000
14999.9
14999.9
14999.8
14999.7
14999.6
14999.5
14999.3
14999
14998.7
14998.4
14997.9
14997.5
14997
14996.4
14995.8
14995.1
14994.5
14993.8
14993.2
14992.6
14992
14991.5
14991.1
14990.8
14990.5
14990.3
14990.3
14990.3
14990.4
14990.7
14991
14991.3
14991.8
14992.2
14992.8
14993.3
14993.9
14994.4
14995
14995.5
14996
14996.5
14996.9
14997.3
14997.7
14998
14998.3
14998.5
14998.7
14998.9
14999
14999.1
14999.2
14999.2
14999.2
14999.1
14999.1
14998.9
14998.8
14998.6
14998.3
14998
14997.6
14997.1
14996.5
14995.8
14995
14994.1
14992.9
14991.6
14990.1
14988.3
14986.1
14983.7
14980.8
14977.5
14973.8
14969.4
14964.4
14958.6
14952.1
14944.6
14936.2
14926.6
14915.7
14903.4
14889.6
14874.1
14856.8
14837.4
14815.8
14791.8
14765.2
14735.7
14703.1
14667.3
14627.9
14584.7
14537.5
14486
14430
14369.1
14303.2
14232
14155.2
14072.7
13984.1
13889.2
13788
13680.1
13565.4
13443.8
13315.1
13179.4
13036.4
12886.2
12728.8
12564.2
12392.5
12213.8
12028.2
11836.1
11637.5
11432.7
11222.1
11006
10784.8
10558.8
10328.6
10094.6
9857.23
9617.13
9374.81
9130.83
8885.77
8640.21
8394.77
8150.04
7906.62
7665.1
7426.07
7190.11
6957.76
6729.58
6506.07
6287.72
6075.01
5868.35
5668.14
5474.75
5288.51
5109.7
4938.58
4775.36
4620.21
4473.27
4334.65
4204.4
4082.54
3969.07
3863.95
3767.1
3678.42
3597.78
3525.01
3459.94
3402.35
3352.04
3308.75
3272.22
3242.18
3218.34
3200.37
3187.93
3180.63
3178
3179.42
3184
3190.34
3196.13
3197.25
3186.32
3149.75
3062.4
2877.52
2508.32
1794.15
519.514
2435
15000
15000
15000
14999.9
14999.9
14999.8
14999.7
14999.6
14999.5
14999.3
14999
14998.7
14998.3
14997.9
14997.4
14996.9
14996.3
14995.7
14995
14994.3
14993.6
14993
14992.3
14991.7
14991.2
14990.7
14990.3
14990
14989.9
14989.8
14989.8
14989.9
14990.1
14990.4
14990.8
14991.3
14991.7
14992.3
14992.8
14993.4
14994
14994.6
14995.1
14995.7
14996.2
14996.7
14997.1
14997.5
14997.8
14998.1
14998.4
14998.6
14998.8
14999
14999.1
14999.1
14999.2
14999.2
14999.1
14999
14998.9
14998.8
14998.6
14998.3
14998
14997.6
14997.1
14996.5
14995.9
14995
14994.1
14993
14991.6
14990.1
14988.3
14986.2
14983.7
14980.9
14977.6
14973.8
14969.5
14964.5
14958.8
14952.2
14944.8
14936.3
14926.7
14915.9
14903.7
14889.9
14874.5
14857.1
14837.8
14816.2
14792.3
14765.7
14736.2
14703.8
14668
14628.7
14585.6
14538.4
14487
14431.1
14370.3
14304.5
14233.4
14156.7
14074.2
13985.7
13891
13789.9
13682.1
13567.5
13446
13317.4
13181.7
13038.8
12888.7
12731.4
12566.8
12395.2
12216.6
12031.1
11838.9
11640.3
11435.5
11224.9
11008.7
10787.4
10561.3
10331
10096.8
9859.27
9618.96
9376.38
9132.12
8886.74
8640.84
8395.02
8149.87
7906
7663.99
7424.44
7187.92
6954.99
6726.18
6502.02
6282.99
6069.55
5862.14
5661.15
5466.95
5279.88
5100.21
4928.21
4764.08
4608.01
4460.14
4320.56
4189.34
4066.5
3952.05
3845.93
3748.09
3658.4
3576.76
3502.99
3436.93
3378.37
3327.08
3282.83
3245.35
3214.38
3189.63
3170.77
3157.47
3149.33
3145.89
3146.54
3150.4
3156.08
3161.29
3161.98
3150.83
3114.42
3027.81
2844.5
2477.15
1761.02
512.351
2452.36
15000
15000
15000
14999.9
14999.9
14999.8
14999.7
14999.6
14999.5
14999.3
14999
14998.7
14998.3
14997.9
14997.4
14996.9
14996.3
14995.6
14994.9
14994.2
14993.5
14992.8
14992.2
14991.5
14991
14990.5
14990
14989.7
14989.5
14989.4
14989.4
14989.5
14989.7
14990
14990.4
14990.8
14991.3
14991.9
14992.5
14993.1
14993.7
14994.3
14994.9
14995.4
14996
14996.5
14996.9
14997.3
14997.7
14998
14998.3
14998.5
14998.7
14998.9
14999
14999.1
14999.1
14999.1
14999.1
14999
14998.9
14998.8
14998.6
14998.3
14998
14997.6
14997.1
14996.5
14995.9
14995.1
14994.1
14993
14991.7
14990.1
14988.3
14986.2
14983.8
14981
14977.7
14973.9
14969.6
14964.6
14958.9
14952.4
14944.9
14936.5
14926.9
14916.1
14903.9
14890.2
14874.8
14857.5
14838.2
14816.7
14792.8
14766.2
14736.9
14704.4
14668.7
14629.5
14586.4
14539.4
14488.1
14432.2
14371.5
14305.8
14234.8
14158.2
14075.9
13987.5
13892.9
13791.8
13684.1
13569.7
13448.3
13319.8
13184.2
13041.4
12891.4
12734.1
12569.7
12398.1
12219.5
12034
11841.9
11643.3
11438.5
11227.8
11011.6
10790.2
10564
10333.5
10099.2
9861.46
9620.91
9378.08
9133.53
8887.83
8641.58
8395.36
8149.78
7905.45
7662.95
7422.86
7185.77
6952.23
6722.78
6497.94
6278.2
6064.02
5855.84
5654.05
5459.02
5271.08
5090.53
4917.62
4752.56
4595.54
4446.7
4306.13
4173.91
4050.07
3934.59
3827.45
3728.57
3637.85
3555.18
3480.38
3413.29
3353.71
3301.41
3256.16
3217.7
3185.77
3160.06
3140.28
3126.08
3117.07
3112.79
3112.64
3115.74
3120.73
3125.33
3125.55
3114.17
3077.9
2992.06
2810.45
2445.85
1731.61
508.352
2491.61
15000
15000
15000
14999.9
14999.9
14999.8
14999.7
14999.6
14999.5
14999.3
14999
14998.7
14998.3
14997.9
14997.4
14996.9
14996.3
14995.6
14994.9
14994.2
14993.5
14992.8
14992.1
14991.5
14990.9
14990.3
14989.9
14989.6
14989.3
14989.2
14989.2
14989.3
14989.5
14989.7
14990.1
14990.6
14991.1
14991.6
14992.2
14992.8
14993.4
14994.1
14994.7
14995.2
14995.8
14996.3
14996.8
14997.2
14997.6
14997.9
14998.2
14998.5
14998.7
14998.8
14999
14999.1
14999.1
14999.1
14999.1
14999
14998.9
14998.8
14998.6
14998.3
14998
14997.6
14997.1
14996.6
14995.9
14995.1
14994.1
14993
14991.7
14990.2
14988.4
14986.3
14983.8
14981
14977.8
14974
14969.7
14964.7
14959
14952.5
14945.1
14936.7
14927.2
14916.4
14904.2
14890.5
14875.1
14857.9
14838.6
14817.2
14793.3
14766.8
14737.5
14705.1
14669.5
14630.3
14587.4
14540.4
14489.2
14433.4
14372.8
14307.2
14236.3
14159.8
14077.6
13989.3
13894.8
13793.9
13686.3
13572
13450.7
13322.3
13186.8
13044.1
12894.2
12737
12572.6
12401.1
12222.6
12037.1
11845
11646.4
11441.6
11230.9
11014.6
10793.1
10566.8
10336.2
10101.7
9863.77
9623
9379.91
9135.06
8889.04
8642.42
8395.8
8149.79
7904.98
7661.97
7421.34
7183.66
6949.5
6719.4
6493.86
6273.4
6058.46
5849.48
5646.87
5450.99
5262.17
5080.71
4906.87
4740.86
4582.86
4433.02
4291.44
4158.2
4033.31
3916.79
3808.59
3708.65
3616.87
3533.13
3457.27
3389.12
3328.49
3275.15
3228.87
3189.4
3156.47
3129.78
3109.04
3093.91
3083.99
3078.84
3077.85
3080.16
3084.43
3088.41
3088.15
3076.53
3040.47
2955.67
2776.79
2419.23
1726.83
511.348
2472.76
15000
15000
15000
14999.9
14999.9
14999.8
14999.8
14999.6
14999.5
14999.3
14999
14998.8
14998.4
14998
14997.5
14997
14996.4
14995.7
14995
14994.3
14993.6
14992.9
14992.2
14991.5
14990.9
14990.4
14989.9
14989.6
14989.3
14989.2
14989.1
14989.2
14989.4
14989.6
14990
14990.4
14990.9
14991.5
14992
14992.7
14993.3
14993.9
14994.5
14995.1
14995.7
14996.2
14996.7
14997.1
14997.5
14997.9
14998.2
14998.4
14998.6
14998.8
14998.9
14999
14999.1
14999.1
14999.1
14999
14998.9
14998.8
14998.6
14998.3
14998
14997.6
14997.1
14996.6
14995.9
14995.1
14994.1
14993
14991.7
14990.2
14988.4
14986.3
14983.9
14981.1
14977.8
14974.1
14969.8
14964.8
14959.1
14952.7
14945.3
14936.9
14927.4
14916.6
14904.5
14890.8
14875.5
14858.3
14839.1
14817.6
14793.8
14767.4
14738.2
14705.9
14670.3
14631.2
14588.3
14541.5
14490.3
14434.6
14374.2
14308.7
14237.8
14161.5
14079.4
13991.2
13896.8
13796
13688.6
13574.3
13453.2
13324.9
13189.5
13047
12897.1
12740
12575.7
12404.3
12225.8
12040.4
11848.3
11649.7
11444.9
11234.1
11017.8
10796.2
10569.8
10339
10104.3
9866.23
9625.22
9381.87
9136.72
8890.36
8643.37
8396.35
8149.89
7904.6
7661.07
7419.88
7181.61
6946.82
6716.05
6489.81
6268.6
6052.89
5843.1
5639.65
5442.9
5253.19
5070.8
4896.01
4729.02
4570.03
4419.17
4276.56
4142.27
4016.32
3898.73
3789.45
3688.42
3595.55
3510.72
3433.77
3364.54
3302.83
3248.42
3201.08
3160.57
3126.61