<?xml version="1.0"?>
<VTKFile type="PolyData" version="0.1" byte_order="LittleEndian">
  <PolyData>
    <Piece NumberOfPoints="50000" NumberOfVerts="50000" NumberOfLines="0" NumberOfStrips="0" NumberOfPolys="0">
      <Points>
        <DataArray type="Float32" NumberOfComponents="3" format="ascii">
0.127575 0.00332085 0
-0.119838 0.00148281 0
0.123315 -0.000245751 0
0.128878 -7.40312e-05 0
-0.103978 0.00257018 0
-0.0871882 0.00127228 0
0.0424211 -0.0075488 0
-0.107833 0.000553072 0
0.0376011 -0.00577153 0
-0.00778999 0.0034003 0
0.0965932 -0.00340002 0
0.123193 0.0030888 0
-0.0698129 0.00281811 0
-0.0490605 -0.00709201 0
-0.130859 0.00129204 0
0.0994974 0.00445426 0
-0.0176838 -8.15083e-05 0
0.127712 0.00111434 0
0.0486673 0.00104106 0
-0.119901 0.00175269 0
-0.125792 0.0023169 0
0.11051 0.00271926 0
-0.123961 0.00138643 0
0.124749 0.000596069 0
0.0793492 -0.00343007 0
0.092538 0.00467386 0
-0.122613 -0.00180114 0
0.128092 -0.000473937 0
-0.0873961 0.00800698 0
-0.129572 0.00344619 0
-0.0971195 0.00441201 0
-0.0899363 -0.00461916 0
0.126945 0.000860995 0
0.127556 0.000258759 0
0.0246582 0.00221351 0
0.129796 7.91011e-05 0
0.0396853 0.00106366 0
-0.128648 0.00136682 0
-0.119838 -0.00107393 0
-0.133351 -0.000211472 0
0.0932635 0.0047492 0
0.0987408 0.00253911 0
-0.122872 -0.000182056 0
0.126145 0.000831105 0
0.130403 0.00101363 0
-0.126373 0.00334098 0
0.124371 0.00218776 0
0.0636653 -0.00413079 0
0.122626 0.000708429 0
0.125579 0.000660567 0
0.0525284 0.00737912 0
-0.124043 0.000240243 0
-0.0857306 0.00358465 0
0.124016 0.00154113 0
-0.122002 0.0013622 0
-0.129936 0.0014128 0
0.127658 0.000208574 0
0.0515504 0.00426943 0
0.0952199 0.00299554 0
0.131732 -0.000937392 0
0.107324 0.0021146 0
0.129074 0.00146942 0
0.0286286 -0.00950516 0
0.1316 5.05721e-05 0
-0.0414167 0.00594512 0
-0.12171 0.00104779 0
0.125119 0.00032344 0
0.128351 0.000402053 0
0.132673 0.00189065 0
0.0920078 0.000915442 0
-0.122953 0.0016441 0
0.125105 0.00181725 0
0.0688369 0.00104161 0
0.0697296 0.00277782 0
0.0596349 0.00223848 0
-0.125003 -0.000201069 0
0.108788 0.00455214 0
-0.118391 0.00198767 0
0.0961478 0.00278211 0
-0.129629 0.00113321 0
-0.0644092 -0.00994293 0
-0.127103 0.00200348 0
0.118356 0.00225867 0
-0.123668 0.000811995 0
0.131571 -0.000866189 0
-0.123757 0.00167194 0
0.131733 -0.000840411 0
-0.0551411 -0.0020546 0
-0.0532373 0.00783729 0
-0.125127 -0.00165697 0
0.124067 0.00275816 0
-0.122348 0.000409494 0
0.124337 5.88731e-05 0
-0.0836188 0.00677165 0
-0.0119869 -0.00617212 0
-0.109751 0.00228623 0
0.124455 0.00340946 0
-0.125944 0.0016485 0
-0.132927 0.00292698 0
-0.131577 0.000304771 0
-0.110029 -0.00174563 0
-0.122843 -0.00117926 0
0.132468 0.000439716 0
-0.0523547 -0.00581683 0
0.133403 0.000478485 0
0.108868 0.004607 0
0.080966 0.0027929 0
0.00682174 0.00306878 0
0.122425 0.00205706 0
-0.124526 -0.00086163 0
-0.0931273 0.00678907 0
-0.126139 0.00161697 0
-0.10726 0.00393677 0
85.3108 123.406 0
0.0836484 0.00295312 0
-0.124224 0.00174829 0
-0.128876 0.00200717 0
2.17673 2.9775 0
-0.125357 0.00112788 0
-0.00564819 -0.00203259 0
0.128142 0.000212206 0
-0.121 -0.000598789 0
0.0866074 -0.000427462 0
-0.11523 0.00295388 0
0.125635 0.000432631 0
0.12219 0.000354847 0
0.0402024 0.00808716 0
0.128818 0.00203188 0
-0.111497 -0.00152961 0
0.0973435 0.000357162 0
0.129837 -0.000336822 0
0.128715 0.000521953 0
-0.132232 0.000857553 0
-0.110191 0.00189437 0
0.131997 9.79666e-05 0
0.125495 0.000338682 0
0.120824 -0.000230831 0
-0.0192954 0.00161374 0
0.100792 -0.00377989 0
0.0981647 -0.00307723 0
0.100751 -0.00385366 0
0.119513 0.00365808 0
0.12965 -0.00040062 0
-0.0291455 -0.0037182 0
-0.128327 0.00271939 0
0.0856948 -0.0063704 0
-0.0815677 0.00688672 0
-0.126523 0.0012403 0
-0.089678 -0.00555828 0
-0.126963 0.00176773 0
0.0976167 0.00295919 0
0.124678 0.00138175 0
-0.0379354 -0.00305032 0
0.10126 -0.00257924 0
0.100652 0.00326539 0
0.123748 0.0019014 0
0.0845369 -0.00238768 0
-0.124507 0.00148002 0
-0.0531628 -0.00123804 0
0.129312 0.000544726 0
0.0864068 0.000129053 0
-0.113053 -0.000343614 0
-0.122325 0.00139682 0
-0.127228 0.00141434 0
-0.0323166 0.00374951 0
0.0994535 -0.00133545 0
0.112392 -0.00110658 0
0.113726 0.00179721 0
0.0957083 0.0031752 0
-0.051722 0.000807818 0
0.133088 -0.000876747 0
-0.121899 0.00158292 0
-0.0283729 -0.00121505 0
0.128846 0.00204265 0
-0.0226327 -0.000447246 0
-0.0978945 0.00553725 0
-0.122234 0.00138594 0
-0.073677 -0.00282605 0
-0.124024 -0.000140558 0
-0.12462 -0.00148789 0
0.12339 0.000626733 0
-0.125971 0.00260896 0
-0.124029 0.00229637 0
0.127511 0.0023509 0
0.124209 0.000363857 0
0.0957303 -0.00477092 0
0.133372 -0.000417015 0
0.131814 0.000789069 0
0.128011 -0.000502605 0
0.0145868 0.00977989 0
0.130152 -0.000493265 0
0.10522 -0.00221951 0
-0.0832273 -0.0051051 0
0.117028 0.00265639 0
-0.114938 0.00260941 0
0.123425 0.00120786 0
-0.102212 0.00429288 0
-0.109166 0.00227493 0
-0.122586 0.00181741 0
0.125083 0.00222793 0
-0.0813946 0.00654576 0
0.131404 0.00150006 0
0.11404 -0.00107434 0
-0.0251935 -0.00159111 0
0.13327 -0.000908786 0
-0.121132 -0.00194567 0
0.0174221 0.0153152 0
0.053078 -0.00145041 0
-0.109156 0.00397016 0
-0.0765715 -0.0025629 0
0.122192 0.000839152 0
-0.0530582 -0.00592441 0
0.11495 -0.000508561 0
-0.105473 0.00406956 0
-0.0718562 -0.00432374 0
-0.127158 0.00249826 0
-0.125458 0.0030097 0
0.126652 0.000566263 0
-0.128653 0.000160913 0
-0.0145602 0.00717691 0
-0.0987528 0.00429193 0
-0.128565 0.00173233 0
-0.118999 -0.00139544 0
0.132165 -0.000273142 0
0.0467316 0.00832512 0
-0.122328 0.00154684 0
0.132675 0.00100194 0
0.127588 0.000394575 0
-0.108344 0.00367406 0
-0.128341 0.000385684 0
-0.126329 -0.000640184 0
0.124258 0.00200771 0
0.0644321 0.00800294 0
-0.0188831 0.0053074 0
-0.130562 0.00198125 0
-0.112142 0.00245657 0
0.0971946 -0.00485468 0
-0.0984698 -0.000802792 0
-0.124638 0.00164363 0
0.0773359 -0.000284475 0
0.130284 0.000633273 0
-0.114695 -0.0015794 0
-0.126227 0.00164587 0
-0.0722552 -0.00377557 0
0.0637926 0.0027738 0
0.113668 0.00194822 0
-0.118819 0.0028145 0
0.127668 0.000393657 0
0.131103 0.00147796 0
0.0752108 0.00456205 0
0.0785576 0.00200352 0
-0.11846 0.00219114 0
0.12314 -0.000283199 0
-0.0555138 -0.0023271 0
-0.11448 0.00316081 0
0.123451 0.000558081 0
-0.110951 0.00309822 0
0.108896 0.00345158 0
0.0473322 0.00793749 0
0.068584 0.000742938 0
0.13114 0.000937442 0
-0.118418 0.00213681 0
0.0243321 -0.00195296 0
0.0124659 -0.00373732 0
-0.084226 0.00168174 0
-0.124699 0.000911494 0
-0.122606 0.0015116 0
-0.121998 0.000129269 0
0.126545 0.000330923 0
0.1254 0.000391072 0
0.129221 0.000347203 0
-0.125894 -0.000338464 0
0.0829399 0.00159742 0
0.00709606 0.00437497 0
-0.131261 0.00216815 0
-0.12755 0.00130995 0
0.122879 0.000525931 0
-0.121919 0.00153905 0
0.121637 0.00268163 0
-0.123874 0.00011784 0
-0.11978 0.000546265 0
-0.0547783 -0.00654171 0
-0.125764 0.0013584 0
0.119865 -4.81231e-05 0
-0.10647 0.00397173 0
-0.120022 -0.000411408 0
-0.0471384 0.00683425 0
-0.125494 0.00160499 0
-0.127299 0.00178237 0
0.108172 -0.000334432 0
-0.0442262 0.0027403 0
0.126341 0.000354568 0
0.129082 -0.000262684 0
0.082114 0.00498336 0
0.130864 0.00168596 0
0.124671 0.00261772 0
0.130314 0.00196888 0
-0.0854368 0.00789772 0
-0.11778 0.00122871 0
-0.130729 0.000886819 0
0.133756 0.000932772 0
-0.0171082 0.00293089 0
0.12586 9.48796e-05 0
0.123011 0.00169567 0
0.129538 0.000411731 0
0.0225575 0.00443496 0
-0.0653094 0.00842188 0
0.108932 0.00232033 0
-0.0145238 0.000739751 0
-0.0610214 0.00353882 0
-0.102553 0.00422584 0
0.126491 0.00276769 0
-0.0906498 0.005162 0
0.116701 -0.00104786 0
0.0962839 -0.000853441 0
-0.130518 0.00255652 0
0.102402 -0.00397105 0
0.132522 -0.000980332 0
0.118452 -0.000308325 0
0.126871 0.00299589 0
-0.127318 0.00227293 0
-0.0273185 0.00532075 0
0.129029 0.00129268 0
0.128594 0.000352235 0
0.0592254 0.00835987 0
-0.121634 0.000435624 0
-0.119007 0.00218043 0
0.132298 0.000803525 0
-0.12148 -0.000346175 0
0.12792 0.00144513 0
0.128675 -0.000114198 0
0.0614988 -0.00667578 0
0.123002 0.00174204 0
-0.124984 0.00163133 0
-0.106578 0.000415692 0
-0.0713735 -0.000181825 0
0.0106636 -0.0017798 0
0.0156852 -0.008442 0
-0.114595 0.00165662 0
0.0572149 -0.00747802 0
-0.0126345 0.0131434 0
-0.129194 0.0024956 0
-0.0917887 0.00487917 0
-0.126012 0.00198825 0
-0.051548 -0.00362129 0
0.128775 0.00282829 0
-0.0890498 0.00540337 0
-0.127749 0.000562357 0
-17.2604 71.3964 0
0.128385 -0.000986536 0
0.127894 0.000304397 0
-0.103467 0.00504188 0
0.124585 0.00159533 0
0.118034 0.000328958 0
-160.312 -286.693 0
0.0393986 0.0051977 0
-0.126374 0.00175495 0
-0.104561 -0.000160827 0
0.12683 0.00175842 0
1.17389 -2.41619 0
0.119964 0.00220465 0
-0.12378 -0.00131887 0
-0.0784458 0.000697566 0
-0.125709 -0.000454999 0
-0.12803 0.00270416 0
0.125968 0.000330699 0
-0.129669 0.000156082 0
-0.112316 0.00348405 0
0.0986304 0.00456949 0
-0.122256 0.000621358 0
-0.101562 0.00504736 0
-0.112923 0.00318441 0
0.127137 0.00196904 0
0.1147 -0.00154341 0
-0.0747504 0.00656942 0
0.130941 5.75182e-06 0
-0.126508 -0.0011932 0
-0.117085 -0.000521674 0
-0.127811 0.000988513 0
0.0115653 -0.00898091 0
-0.123124 -0.00109873 0
0.125825 0.00200579 0
-0.125141 0.0017623 0
-0.12473 0.00121734 0
-0.0300878 0.00534665 0
0.0820972 0.00492162 0
-0.0399524 0.0119643 0
0.0273228 0.00706865 0
-0.126478 0.00182527 0
-0.0222453 0.00176396 0
-0.126809 0.000286162 0
-0.127358 0.00232152 0
0.12281 -0.00116172 0
0.107832 0.00359209 0
-0.118848 0.00262578 0
0.114399 0.0022084 0
0.113226 0.00107529 0
-0.121413 0.00156868 0
-0.0665082 -0.00158887 0
0.0894437 -0.00474226 0
-0.121782 0.000853611 0
0.108435 -0.00214107 0
0.0500326 -0.000859531 0
-0.12475 0.000298573 0
0.117846 0.000461683 0
0.123949 -7.34529e-05 0
0.126169 -0.000807927 0
0.128436 0.000177508 0
0.130484 0.000675898 0
0.12403 0.00285071 0
-0.125838 0.00147418 0
0.0911138 0.00367207 0
-0.103503 -0.000962611 0
0.0597546 0.00896566 0
-0.118421 0.00146517 0
-0.0417181 -0.00111184 0
-0.0978144 0.00430678 0
0.0365233 -0.0037355 0
-0.12842 0.00183318 0
[...]
      <PointData Scalars="T">
        <DataArray type="Float32" Name="T" format="ascii" NumberOfComponents="1">
310.161
339.704
312.057
312.057
351.909
353.782
312.057
363.105
312.057
351.909
312.057
310.161
351.909
353.166
354.726
310.161
353.166
300.629
300.59
339.419
351.909
310.161
345.852
300.657
312.057
310.161
353.166
312.057
351.909
351.909
351.909
353.166
300.47
301.011
310.161
301.931
300.642
348.082
353.166
353.166
310.161
310.161
353.166
300.487
300.459
351.909
310.161
312.057
300.599
300.642
310.161
368.703
351.909
301.176
348.082
345.222
301.231
310.161
310.161
312.057
310.161
300.845
312.057
302.003
351.909
363.182
300.769
300.672
302.738
300.458
334.49
302.537
300.59
310.161
310.161
353.166
310.161
351.909
310.161
357.788
353.166
351.909
310.161
355.144
312.057
334.939
312.057
353.166
351.909
353.166
310.161
364.186
302.003
351.909
353.166
351.909
310.161
334.49
351.909
369.282
353.166
353.166
300.655
353.166
300.642
310.161
310.161
310.161
310.161
353.166
351.909
334.93
351.909
310.161
310.161
338.863
351.909
310.161
357.976
353.166
301.173
353.166
312.057
351.909
300.655
300.706
310.161
310.161
353.166
300.706
312.057
300.623
359.178
345.478
301.835
300.741
312.057
334.93
312.057
312.057
312.057
310.161
312.057
353.166
351.909
312.057
351.909
353.897
353.166
339.929
310.161
300.728
353.166
312.057
310.161
302.756
312.057
339.704
353.166
300.626
301.667
353.166
345.631
345.222
351.909
312.057
312.057
302.534
310.161
354.628
312.057
335.799
353.166
310.161
353.166
351.909
345.852
353.166
353.166
353.166
300.668
351.909
351.909
310.161
300.695
312.057
312.057
300.508
312.057
310.161
312.057
312.057
353.166
310.161
351.909
300.615
351.909
351.909
342.641
310.161
351.909
300.968
312.057
353.166
312.057
353.166
310.161
312.057
351.909
353.166
300.487
353.166
312.057
351.909
353.166
351.909
351.909
300.631
369.576
351.909
351.909
338.352
353.166
312.057
310.161
336.705
300.454
300.674
351.909
365.729
353.166
310.161
310.161
351.909
351.909
351.909
312.057
353.166
334.49
312.057
300.667
353.166
334.49
353.166
310.161
310.161
351.909
300.674
300.875
310.161
310.161
351.909
312.057
353.166
351.909
300.628
351.909
310.161
310.161
300.538
300.458
351.909
312.057
312.057
335.243
361.066
337.856
371.122
300.741
300.674
300.719
353.166
301.478
310.161
351.909
354.788
300.623
336.965
310.161
371.82
362.401
353.166
349.406
312.057
351.909
353.166
351.909
335.161
341.019
312.057
351.909
300.706
312.057
310.161
302.15
310.161
310.161
351.909
354.598
361.397
300.458
351.909
301.835
302.223
300.668
310.161
351.909
310.161
353.237
351.909
351.909
310.161
351.909
312.057
312.057
351.909
312.057
312.057
312.057
310.161
351.909
351.909
300.662
300.706
310.161
362.468
351.909
300.5
353.166
300.816
312.057
312.057
302.476
334.618
363.265
353.166
312.057
312.057
334.429
312.057
351.909
351.909
351.909
351.909
353.166
310.161
351.909
363.21
351.909
312.057
300.834
351.909
301.478
300.769
353.166
310.161
339.419
353.166
302.479
312.057
310.161
353.166
357.149
353.166
351.909
300.741
369.923
351.909
310.161
361.047
351.909
351.909
310.161
312.057
351.909
312.057
353.166
353.166
363.419
312.057
353.166
310.161
339.929
355.543
351.909
310.161
351.909
310.161
342.814
339.929
370.359
351.909
312.057
310.161
351.909
310.161
300.651
336.176
353.166
312.057
359.178
312.057
312.057
369.844
300.641
312.057
312.057
301.374
300.631
310.161
340.502
310.161
353.166
310.161
341.737
353.166
351.909
312.057
343.004
300.769
351.909
310.161
334.618
300.643
300.643
310.161
312.057
334.618
345.631
301.231
351.909
310.161
345.222
310.161
365.786
353.166
351.909
351.909
301.912
300.629
351.909
312.057
353.638
366.747
353.166
351.909
353.166
310.161
312.057
375.24
300.765
353.166
370.662
312.057
312.057
353.166
345.869
353.666
353.166
300.465
353.166
300.519
351.909
353.166
300.643
310.161
353.166
353.166
351.909
351.909
310.161
353.597
312.057
300.741
302.675
351.909
351.909
342.641
300.65
310.161
358.162
353.166
353.166
345.469
300.63
310.161
300.668
300.447
351.909
310.161
310.161
300.468
337.856
310.161
312.057
364.186
301.667
336.965
351.909
351.909
353.166
366.747
353.166
353.166
353.166
312.057
312.057
312.057
310.161
312.057
310.161
310.161
353.166
310.161
343.026
312.057
310.161
351.909
310.161
351.909
357.976
351.909
358.162
310.161
312.057
310.161
300.911
301.566
312.057
351.909
310.161
310.161
355.987
310.161
354.744
334.618
353.166
312.057
301.323
351.909
351.909
353.166
368.703
353.166
310.161
310.161
300.662
310.161
353.166
351.909
310.161
351.909
300.481
310.161
353.166
334.49
312.057
351.909
301.854
310.161
353.166
310.161
353.166
301.052
365.786
351.909
300.642
312.057
353.166
353.166
357.819
339.704
351.909
310.161
312.057
300.976
300.458
310.161
353.166
357.149
362.727
353.166
335.243
302.398
312.057
351.909
310.161
370.588
300.459
310.161
300.538
346.588
310.161
353.166
363.182
310.161
312.057
353.166
310.161
335.243
312.057
312.057
310.161
300.638
353.166
353.166
351.909
358.468
310.161
353.166
312.057
368.497
353.166
310.161
300.623
353.166
353.166
351.909
351.909
301.374
312.057
351.909
362.401
353.166
310.161
312.057
335.799
351.909
312.057
312.057
310.161
310.161
345.852
353.166
353.166
353.166
353.166
310.161
351.909
310.161
300.932
353.166
351.909
300.623
312.057
353.166
342.814
312.057
353.166
353.166
337.856
301.797
353.166
351.37
310.161
351.909
344.18
312.057
310.161
336.176
310.161
312.057
353.682
310.161
300.672
341.019
351.909
312.057
300.643
300.623
310.161
302.564
362.911
362.468
351.909
351.909
310.161
335.805
353.166
300.466
302.398
351.909
350.776
351.909
300.769
310.161
310.161
310.161
351.909
300.655
312.057
359.575
343.724
300.932
300.798
310.161
310.161
300.765
351.909
310.161
301.326
312.057
334.618
310.161
351.909
312.057
301.854
312.057
310.161
312.057
351.909
300.655
358.988
302.642
336.705
351.909
351.909
312.057
353.166
310.161
334.72
300.623
310.161
353.166
312.057
357.023
369.576
363.459
350.776
351.909
351.909
300.695
312.057
312.057
300.627
312.057
357.149
310.161
335.483
362.849
312.057
312.057
339.129
300.465
345.478
310.161
351.909
351.909
351.909
353.166
371.82
300.47
351.909
310.161
351.909
353.166
351.909
372.268
353.166
300.628
310.161
312.057
351.909
353.166
351.909
353.682
353.166
351.909
353.166
310.161
336.04
353.166
312.057
312.057
300.672
352.866
351.909
353.166
310.161
370.588
300.628
342.641
353.166
370.092
310.161
300.627
310.161
300.614
301.374
351.909
351.909
302.198
351.909
310.161
354.788
310.161
345.469
353.166
301.326
334.939
300.62
351.909
351.909
312.057
300.642
370.662
310.161
312.057
300.63
310.161
351.909
353.166
362.911
310.161
351.909
300.621
310.161
312.057
312.057
364.554
344.658
300.615
351.909
351.909
312.057
300.623
302.15
300.911
351.909
353.166
310.161
351.909
300.715
302.513
335.161
351.909
301.013
359.178
312.057
300.674
335.243
334.429
312.057
300.47
351.909
353.166
353.166
310.161
300.62
355.987
351.909
345.173
355.987
353.166
301.797
351.909
301.131
354.386
301.566
300.634
354.249
301.011
351.37
310.161
300.798
351.909
353.166
301.055
312.057
310.161
310.161
310.161
310.161
334.618
310.161
312.057
362.727
312.057
310.161
351.909
300.65
312.057
310.161
351.909
351.909
353.166
312.057
353.166
300.834
353.166
346.588
351.909
310.161
353.166
362.178
353.166
312.057
365.786
351.909
312.057
300.801
353.166
353.166
312.057
351.909
312.057
312.057
368.703
310.161
353.166
300.669
312.057
310.161
312.057
310.161
310.161
351.909
300.715
312.057
300.942
351.909
300.741
353.166
351.909
353.166
312.057
310.161
340.502
353.166
351.909
312.057
351.909
351.909
300.667
300.674
310.161
302.477
336.726
350.776
312.057
351.909
310.161
351.909
353.166
300.614
353.166
312.057
351.909
353.166
351.909
351.909
351.909
355.987
353.166
351.909
351.909
310.161
358.988
312.057
312.057
312.057
312.057
310.161
351.909
300.626
335.805
310.161
334.72
302.529
300.669
353.166
310.161
351.909
302.198
310.161
312.057
368.497
300.942
351.909
300.462
353.166
353.166
310.161
353.166
339.929
351.909
353.166
312.057
310.161
310.161
310.161
353.166
312.057
368.354
312.057
300.528
310.161
310.161
301.222
312.057
300.834
353.166
310.161
301.414
372.268
351.909
312.057
344.658
300.454
351.909
353.166
337.867
353.597
353.166
336.04
300.828
353.166
310.161
353.982
312.057
351.909
310.161
351.909
351.909
302.495
310.161
351.909
312.057
310.161
300.652
300.481
353.166
351.909
362.041
363.284
312.057
351.909
300.563
351.909
351.909
302.043
302.11
351.909
310.161
312.057
300.642
312.057
339.419
300.668
310.161
351.909
351.909
351.909
353.166
351.909
312.057
335.161
312.057
353.166
300.636
312.057
310.161
335.799
353.166
353.166
351.909
312.057
310.161
353.166
301.931
300.642
353.166
353.166
301.733
338.863
300.628
312.057
310.161
353.166
351.909
351.909
351.909
310.161
363.182
301.993
353.897
351.909
300.674
310.161
310.161
312.057
302.448
362.401
359.017
353.166
336.705
300.672
300.875
310.161
310.161
310.161
310.161
353.166
343.724
351.909
351.909
362.384
336.176
337.856
300.563
312.057
312.057
300.655
301.323
336.705
312.057
343.004
300.481
374.89
351.909
310.161
348.082
359.575
300.719
363.172
312.057
312.057
312.057
301.733
310.161
302.537
312.057
310.161
374.483
300.524
353.897
310.161
310.161
300.652
369.067
312.057
371.122
310.161
310.161
310.161
310.161
351.909
312.057
351.909
310.161
300.667
312.057
362.164
360.2
359.178
312.057
312.057
353.166
310.161
345.173
300.908
300.798
353.166
351.909
362.07
312.057
310.161
343.004
300.706
351.909
300.932
351.909
334.93
361.066
351.909
312.057
312.057
373.725
351.909
351.909
351.909
312.057
353.166
310.161
351.909
310.161
301.1
351.909
341.737
310.161
351.909
300.627
312.057
312.057
351.909
300.487
312.057
353.166
351.909
312.057
351.909
300.674
351.909
334.429
300.687
353.166
353.166
300.65
300.663
302.495
312.057
310.161
370.556
300.744
310.161
351.909
351.909
312.057
336.965
310.161
300.468
355.182
339.704
310.161
363.259
355.976
300.642
312.057
362.884
354.726
301.092
343.004
358.73
374.89
369.282
351.909
312.057
312.057
351.909
341.019
312.057
353.166
312.057
310.161
310.161
351.909
351.909
312.057
355.144
310.161
345.182
310.161
312.057
353.682
301.323
301.733
353.166
336.431
353.166
353.166
335.161
351.909
341.019
351.909
310.161
300.628
312.057
345.182
312.057
351.909
338.436
300.623
335.799
334.49
302.479
338.436
370.662
312.057
353.166
375.286
310.161
342.814
310.161
300.704
301.374
312.057
351.909
301.055
300.628
337.337
334.429
310.161
351.909
351.909
300.519
301.011
300.643
353.166
300.719
351.909
300.615
312.057
359.35
336.04
336.965
312.057
300.631
351.909
351.909
345.869
353.166
300.693
353.166
312.057
353.166
353.166
300.66
310.161
312.057
353.166
310.161
312.057
310.161
355.182
301.011
361.066
362.041
351.909
340.502
358.162
353.166
353.166
310.161
301.732
353.166
351.909
351.909
312.057
351.909
351.909
334.618
353.166
353.166
312.057
312.057
302.529
334.93
310.161
310.161
300.687
353.166
312.057
300.629
310.161
300.47
310.161
351.909
357.819
363.914
351.909
352.866
300.798
353.166
353.166
310.161
351.909
353.166
351.909
353.666
346.588
334.429
363.193
312.057
353.166
353.166
351.909
353.166
339.419
312.057
353.166
351.909
312.057
302.11
312.057
353.166
353.166
351.909
310.161
336.176
369.067
300.625
351.909
334.429
351.909
310.161
351.909
310.161
310.161
312.057
374.797
312.057
300.622
353.166
363.284
312.057
310.161
353.166
351.909
351.909
301.882
351.909
369.282
351.909
310.161
310.161
312.057
310.161
353.166
351.909
336.04
312.057
310.161
351.909
310.161
310.161
362.041
353.166
375.286
310.161
310.161
310.161
345.631
310.161
363.914
310.161
351.909
340.493
354.598
301.27
300.627
312.057
312.057
370.662
312.057
312.057
354.744
338.436
310.161
310.161
300.631
351.909
312.057
335.799
301.513
302.532
312.057
300.626
362.911
336.726
363.105
310.161
312.057
312.057
300.643
351.909
310.161
334.939
300.728
300.663
310.161
353.166
300.579
339.129
310.161
310.161
312.057
363.155
312.057
312.057
312.057
301.733
302.578
358.407
310.161
312.057
351.909
353.166
363.193
353.597
351.909
351.909
353.237
351.909
302.289
300.687
353.166
310.161
351.909
354.726
345.852
312.057
353.166
353.166
300.968
312.057
310.161
310.161
310.161
354.598
300.908
310.161
312.057
310.161
338.352
300.497
357.976
353.166
353.166
312.057
353.166
351.909
351.909
351.909
351.909
351.909
359.826
351.909
300.828
302.096
301.667
341.737
312.057
345.222
301.667
310.161
351.909
300.626
300.652
310.161
302.721
312.057
354.249
312.057
300.462
351.909
310.161
353.782
310.161
351.909
312.057
300.631
351.909
351.909
353.166
351.909
353.166
351.909
312.057
312.057
312.057
353.166
310.161
351.909
300.674
370.662
310.161
336.705
351.909
353.166
337.337
300.663
312.057
374.797
312.057
302.537
353.166
351.909
300.66
310.161
344.17
302.61
310.161
312.057
300.623
312.057
353.166
351.909
353.166
353.166
310.161
312.057
310.161
300.628
302.198
351.909
363.284
362.401
301.444
300.459
300.655
312.057
351.909
312.057
310.161
302.223
310.161
300.65
310.161
351.909
344.17
351.909
310.161
341.737
351.909
300.64
300.458
300.663
300.446
351.909
310.161
344.17
310.161
310.161
351.909
312.057
353.166
353.166
353.166
300.674
353.166
353.166
354.386
353.166
364.884
334.49
353.166
372.268
355.182
312.057
351.909
351.909
310.161
310.161
312.057
300.695
310.161
340.502
351.909
310.161
353.166
353.166
310.161
346.588
353.166
300.662
310.161
300.942
351.909
340.493
312.057
351.909
351.909
312.057
367.301
300.59
300.611
312.057
300.687
351.909
343.333
351.909
312.057
340.502
351.909
351.909
351.909
353.166
351.909
310.161
353.166
351.909
338.436
310.161
351.909
301.173
351.909
354.628
310.161
336.176
353.166
300.942
300.68
368.354
362.849
362.07
300.638
354.628
336.705
359.093
353.166
351.909
353.166
353.166
310.161
312.057
353.166
351.909
312.057
301.796
312.057
353.166
312.057
312.057
302.479
302.529
351.909
353.166
351.909
341.737
300.664
350.776
310.161
346.588
353.166
353.166
312.057
300.446
353.166
351.909
300.769
355.182
310.161
312.057
310.161
312.057
312.057
310.161
348.082
353.166
370.092
351.909
312.057
300.623
375.286
300.66
357.2
335.805
351.909
353.166
351.909
300.968
301.282
339.704
353.166
300.728
310.161
337.867
312.057
340.493
300.642
312.057
300.672
351.909
310.161
312.057
301.323
310.161
370.359
300.444
353.166
353.166
301.612
300.648
370.485
353.982
310.161
312.057
312.057
353.166
353.166
336.176
300.875
301.27
353.166
310.161
312.057
362.164
312.057
310.161
351.909
353.166
363.459
351.909
351.909
357.119
351.909
351.909
300.845
353.166
300.453
353.166
374.483
310.161
354.598
351.909
351.909
353.166
312.057
351.909
353.166
300.754
351.909
358.167
334.93
310.161
300.674
301.732
301.173
353.166
353.166
336.705
364.186
349.406
351.909
353.166
336.431
345.852
312.057
310.161
310.161
300.625
300.47
353.166
362.314
310.161
310.161
353.166
353.166
338.436
312.057
354.598
351.909
351.909
312.057
351.909
312.057
310.161
300.47
312.057
334.618
310.161
351.909
351.909
353.166
310.161
351.909
310.161
300.628
300.666
300.631
351.909
353.166
300.55
300.65
300.629
310.161
310.161
300.798
353.166
301.011
312.057
345.182
363.259
335.161
312.057
300.643
312.057
346.588
354.598
351.909
310.161
341.608
310.161
354.959
300.633
312.057
312.057
300.655
351.909
302.756
353.166
300.618
300.628
310.161
351.909
353.166
353.166
342.641
353.166
353.166
300.662
345.478
362.314
312.057
312.057
300.728
334.49
351.909
353.166
353.166
310.161
351.909
362.384
353.166
301.643
351.909
363.775
300.719
336.176
310.161
353.166
301.667
345.631
353.166
310.161
351.909
312.057
368.354
343.724
312.057
310.161
353.166
336.705
351.909
300.741
351.909
353.166
300.695
363.105
302.552
310.161
362.07
310.161
302.198
312.057
312.057
300.62
369.455
312.057
310.161
359.178
310.161
351.909
353.166
353.166
351.909
353.166
301.323
369.455
310.161
310.161
310.161
312.057
310.161
312.057
312.057
310.161
353.166
300.816
310.161
353.166
312.057
312.057
301.055
300.459
353.166
301.513
300.875
353.166
310.161
353.166
353.166
312.057
334.618
351.909
301.231
351.909
300.765
300.618
310.161
300.668
301.835
312.057
312.057
300.623
300.465
335.805
353.166
362.494
301.27
300.563
351.909
312.057
301.092
362.849
312.057
310.161
312.057
301.011
312.057
337.328
310.161
300.798
351.909
312.057
353.166
310.161
300.668
302.529
351.909
353.166
310.161
338.352
351.909
312.057
301.566
312.057
351.909
310.161
300.59
359.35
339.129
312.057
312.057
310.161
353.166
353.166
353.166
300.706
310.161
312.057
362.468
351.909
312.057
300.55
310.161
310.161
312.057
351.909
310.161
353.166
310.161
351.909
351.909
300.765
310.161
351.909
353.237
310.161
353.166
359.023
358.407
356.914
351.909
338.436
353.166
312.057
312.057
364.554
300.875
362.911
310.161
312.057
353.166
300.68
312.057
351.909
312.057
358.468
354.959
351.909
335.805
310.161
310.161
312.057
353.166
312.057
353.166
312.057
312.057
345.631
374.89
334.72
300.528
300.62
310.161
300.642
353.166
312.057
351.909
300.798
351.909
300.668
334.72
351.909
310.161
312.057
353.166
300.631
351.909
301.222
351.909
353.166
353.166
353.166
312.057
351.909
353.166
358.468
353.166
353.166
312.057
351.909
312.057
312.057
310.161
312.057
310.161
312.057
343.724
353.166
354.822
310.161
310.161
337.856
312.057
300.65
300.68
312.057
351.909
351.909
310.161
310.161
312.057
300.623
359.178
300.468
353.166
345.852
351.909
312.057
351.909
300.626
353.166
302.11
344.658
353.166
310.161
351.909
310.161
312.057
310.161
364.259
362.911
300.633
312.057
312.057
312.057
310.161
363.877
310.161
300.642
351.909
300.641
310.161
312.057
368.497
310.161
310.161
370.588
354.598
361.066
300.579
312.057
349.406
351.909
362.07
353.166
300.769
312.057
351.909
353.166
300.672
353.166
351.909
351.909
312.057
310.161
353.166
359.826
353.166
312.057
353.166
353.166
300.908
310.161
310.161
310.161
351.909
353.166
353.166
353.166
310.161
312.057
310.161
300.642
351.909
334.618
351.909
335.805
353.166
336.176
350.776
300.512
300.744
302.289
312.057
353.166
353.166
344.884
351.909
351.909
312.057
359.826
310.161
310.161
301.973
353.166
353.166
300.942
310.161
301.323
368.497
310.161
336.705
342.814
300.634
300.648
312.057
312.057
310.161
310.161
310.161
302.534
312.057
312.057
354.788
302.11
351.909
310.161
351.909
351.909
354.598
301.566
300.706
363.419
310.161
351.909
374.483
336.965
353.166
312.057
351.909
354.249
301.052
300.455
370.359
351.909
351.909
358.107
312.057
312.057
312.057
363.265
300.468
300.538
312.057
363.419
363.105
300.655
300.693
310.161
300.845
300.655
310.161
353.166
300.706
300.446
300.875
351.909
351.909
335.483
351.909
351.909
312.057
363.21
360.2
351.909
351.909
351.909
300.664
300.611
312.057
345.182
300.741
312.057
312.057
312.057
310.161
351.909
334.618
353.166
312.057
350.776
312.057
353.166
312.057
355.987
358.468
351.909
310.161
353.166
353.166
310.161
353.166
300.614
351.909
300.62
310.161
310.161
364.259
302.532
337.328
353.166
312.057
351.909
312.057
312.057
310.161
310.161
310.161
351.909
310.161
357.023
353.166
300.466
353.166
374.483
357.023
312.057
351.909
354.386
351.909
300.695
353.166
335.243
310.161
312.057
312.057
353.166
339.704
300.454
339.704
351.909
310.161
353.166
342.641
353.166
351.909
370.253
351.909
336.705
300.618
301.993
334.72
353.166
312.057
302.043
353.166
351.909
310.161
300.579
310.161
345.478
351.909
312.057
353.166
335.243
353.166
300.47
312.057
312.057
300.664
310.161
301.013
310.161
312.057
351.909
363.265
358.407
354.249
353.166
351.909
310.161
351.909
310.161
300.563
351.909
301.835
310.161
353.166
353.166
300.62
351.909
351.909
310.161
334.72
354.726
351.909
351.909
353.166
351.909
353.166
351.909
351.909
310.161
353.166
353.166
351.909
353.166
310.161
300.625
310.161
310.161
351.909
353.166
312.057
351.909
351.909
364.554
300.741
312.057
351.909
369.64
310.161
312.057
353.166
351.909
353.166
353.166
351.909
312.057
351.909
353.166
310.161
300.845
351.909
353.166
302.198
312.057
336.04
353.166
337.856
351.909
363.922
312.057
310.161
310.161
310.161
310.161
351.909
312.057
312.057
301.796
351.909
353.166
335.799
353.166
310.161
312.057
300.642
300.719
351.909
351.909
351.909
302.289
351.909
300.459