<?xml version="1.0"?>
<VTKFile type="ImageData" version="0.1" byte_order="LittleEndian">
  <ImageData Origin="0 0 0" Spacing="1e-05 1e-05 1e-05" WholeExtent="0 191 0 191 0 0">
    <Piece Extent="0 191 0 191 0 0">
      <CellData Scalars="T">
        <DataArray type="Float32" Name="T" format="ascii" NumberOfComponents="1">
374.374
15000
14989.4
14971.4
14943.2
14901.1
14841.2
14758.7
14648.8
14506.5
14327
14106
13839.9
13526.3
13163.9
12753.1
12295.7
11795
11255.9
10684.5
10088
9474.31
8851.82
8229.12
7614.66
7016.44
6441.79
5897.13
5387.87
4918.22
4491.24
4108.75
3771.48
3479.08
3230.31
3023.13
2854.89
2722.44
2622.28
2550.68
2503.83
2477.92
2469.27
2474.4
2490.15
2513.74
2542.85
2575.61
2610.68
2647.18
2684.67
2723.13
2762.83
2804.31
2848.25
2895.44
2946.62
3002.47
3063.49
3129.95
3201.83
3278.8
3360.2
3445.1
3532.33
3620.66
3708.92
3796.12
3881.69
3965.49
4047.97
4130.07
4213.08
4298.46
4387.49
4480.98
4578.96
4680.54
4783.8
4886.01
4983.91
5074.16
5153.85
5220.92
5274.5
5315.02
5344.1
5364.22
5378.26
5388.97
5398.48
5407.91
5417.27
5425.49
5430.68
5430.64
5423.32
5407.34
5382.33
5349.11
5309.68
5266.93
5224.26
5185.1
5152.41
5128.33
5113.85
5108.76
5111.63
5120.02
5130.75
5140.2
5144.65
5140.62
5125.13
5095.94
5051.68
4991.9
4917.14
4828.79
4729.01
4620.57
4506.61
4390.47
4275.48
4164.75
4060.99
3966.45
3882.76
3810.96
3751.46
3704.09
3668.23
3642.85
3626.65
3618.2
3616.04
3618.79
3625.27
3634.53
3645.95
3659.23
3674.4
3691.77
3711.9
3735.49
3763.3
3796.04
3834.22
3878.1
3927.53
3981.95
4040.3
4101.06
4162.31
4221.81
4277.15
4325.9
4365.8
4394.95
4411.94
4416.01
4407.09
4385.85
4353.66
4312.49
4264.74
4213.11
4160.35
4109.07
4061.58
4019.69
3984.62
3956.96
3936.68
3923.14
3915.26
3911.59
3910.43
3910
3908.44
3903.78
3893.69
3875.01
3842.6
3787.24
3691.53
3521.88
3213.07
2637.57
1544.1
310.765
441.492
15000
14989.4
14971.5
14943.3
14901.3
14841.4
14759
14649.2
14507.1
14327.7
14106.8
13840.8
13527.2
13164.8
12753.8
12296.2
11795.1
11255.6
10683.7
10086.5
9472.14
8848.94
8225.53
7610.38
7011.52
6436.28
5891.11
5381.4
4911.39
4484.11
4101.38
3763.9
3471.32
3222.38
3015.05
2846.65
2714.04
2613.72
2541.98
2495.02
2469.04
2460.38
2465.57
2481.47
2505.29
2534.71
2567.85
2603.34
2640.28
2678.2
2717.05
2757.08
2798.79
2842.87
2890.07
2941.15
2996.78
3057.49
3123.56
3195
3271.5
3352.43
3436.89
3523.74
3611.79
3699.85
3786.96
3872.53
3956.43
4039.06
4121.34
4204.54
4290.1
4379.28
4472.91
4571.04
4672.79
4776.3
4878.87
4977.27
5068.16
5148.64
5216.61
5271.16
5312.64
5342.63
5363.53
5378.19
5389.34
5399.11
5408.65
5418
5426.13
5431.21
5431.07
5423.68
5407.67
5382.66
5349.47
5310.06
5267.31
5224.58
5185.29
5152.4
5128.03
5113.22
5107.73
5110.18
5118.15
5128.48
5137.56
5141.69
5137.42
5121.76
5092.48
5048.19
4988.47
4913.82
4825.64
4726.06
4617.85
4504.13
4388.23
4273.47
4162.92
4059.32
3964.89
3881.26
3809.47
3749.93
3702.49
3666.53
3641.02
3624.68
3616.11
3613.83
3616.51
3622.94
3632.22
3643.72
3657.14
3672.51
3690.14
3710.57
3734.5
3762.66
3795.74
3834.25
3878.39
3928.02
3982.53
4040.87
4101.49
4162.48
4221.61
4276.46
4324.65
4363.94
4392.46
4408.84
4412.33
4402.93
4381.31
4348.86
4307.55
4259.8
4208.28
4155.72
4104.73
4057.55
4015.97
3981.19
3953.77
3933.67
3920.25
3912.42
3908.75
3907.58
3907.14
3905.59
3900.98
3890.99
3872.45
3840.23
3785.11
3689.77
3520.91
3214.19
2644.63
1567.28
302.418
440.535
15000
14989.4
14971.6
14943.5
14901.7
14842
14759.8
14650.3
14508.4
14329.4
14108.7
13842.9
13529.5
13167
12755.9
12297.8
11796.2
11255.9
10682.9
10084.6
9468.92
8844.34
8219.52
7602.99
7002.81
6426.37
5880.12
5369.47
4898.66
4470.7
4087.39
3749.43
3456.42
3207.09
2999.38
2830.62
2697.64
2596.97
2524.92
2477.7
2451.55
2442.84
2448.12
2464.28
2488.52
2518.52
2552.37
2588.66
2626.44
2665.2
2704.81
2745.48
2787.66
2832.01
2879.25
2930.14
2985.37
3045.48
3110.8
3181.37
3256.94
3336.95
3420.55
3506.66
3594.12
3681.78
3768.7
3854.27
3938.32
4021.24
4103.87
4187.44
4273.35
4362.84
4456.75
4555.16
4657.26
4761.25
4864.52
4963.88
5056.05
5138.06
5207.79
5264.22
5307.59
5339.34
5361.77
5377.66
5389.68
5399.98
5409.75
5419.1
5427.08
5431.96
5431.62
5424.11
5408.05
5383.06
5349.94
5310.58
5267.82
5224.98
5185.44
5152.14
5127.22
5111.71
5105.44
5107.05
5114.17
5123.68
5132.03
5135.54
5130.77
5114.76
5085.29
5040.96
4981.34
4906.92
4819.06
4719.9
4612.14
4498.91
4383.48
4269.16
4159
4055.71
3961.5
3878.01
3806.25
3746.65
3699.08
3662.91
3637.16
3620.57
3611.75
3609.26
3611.78
3618.15
3627.46
3639.11
3652.8
3668.55
3686.68
3707.71
3732.29
3761.15
3794.9
3834.02
3878.68
3928.67
3983.35
4041.64
4101.98
4162.44
4220.81
4274.72
4321.8
4359.88
4387.15
4402.32
4404.71
4394.35
4372
4339.05
4297.5
4249.76
4198.48
4146.35
4095.91
4049.36
4008.41
3974.21
3947.28
3927.54
3914.34
3906.62
3902.95
3901.73
3901.24
3899.67
3895.11
3885.25
3866.92
3834.97
3780.2
3685.32
3517.24
3212.03
2646.6
1593.05
302.407
439.94
15000
14989.5
14971.8
14943.9
14902.2
14842.9
14761.1
14652.1
14510.8
14332.3
14112.2
13846.9
13533.8
13171.5
12760.3
12301.9
11799.7
11258.3
10684.1
10084.2
9466.66
8840.11
8213.24
7594.64
6992.46
6414.12
5866.13
5353.93
4881.75
4452.59
4068.26
3729.38
3435.57
3185.5
2977.09
2807.66
2674.03
2572.75
2500.14
2452.45
2425.97
2417.1
2422.45
2438.89
2463.68
2494.44
2529.26
2566.67
2605.63
2645.57
2686.27
2727.86
2770.74
2815.49
2862.82
2913.48
2968.16
3027.43
3091.67
3160.99
3235.23
3313.9
3396.24
3481.25
3567.83
3654.89
3741.49
3827.01
3911.26
3994.55
4077.67
4161.77
4248.17
4338.12
4432.43
4531.26
4633.86
4738.56
4842.84
4943.6
5037.58
5121.81
5194.07
5253.22
5299.31
5333.61
5358.28
5375.95
5389.26
5400.35
5410.48
5419.87
5427.67
5432.3
5431.73
5424.07
5407.98
5383.06
5350.05
5310.79
5268.03
5225.03
5185.11
5151.2
5125.44
5108.89
5101.44
5101.79
5107.63
5115.92
5123.16
5125.72
5120.2
5103.68
5073.9
5029.51
4970.02
4895.93
4808.56
4710
4602.93
4490.41
4375.71
4262.05
4152.49
4049.68
3955.83
3872.55
3800.87
3741.21
3693.46
3657.03
3630.95
3614
3604.82
3602.03
3604.34
3610.61
3619.97
3631.84
3645.92
3662.24
3681.09
3702.97
3728.49
3758.33
3793.04
3833.03
3878.4
3928.88
3983.77
4041.95
4101.83
4161.5
4218.73
4271.22
4316.66
4352.97
4378.43
4391.84
4392.63
4380.92
4357.52
4323.89
4282.04
4234.36
4183.47
4132
4082.41
4036.8
3996.81
3963.48
3937.29
3918.08
3905.23
3897.64
3893.97
3892.64
3892
3890.31
3885.69
3875.87
3857.66
3825.9
3771.39
3676.88
3509.4
3205.45
2643.37
1593.1
302.389
439.641
15000
14989.6
14972
14944.4
14903.1
14844.2
14763.1
14654.8
14514.3
14336.8
14117.6
13853.3
13540.9
13179.3
12768.4
12309.9
11807.2
11264.9
10689.3
10087.6
9467.91
8838.92
8209.43
7588.11
6983.21
6402.24
5851.77
5337.26
4862.99
4431.96
4045.95
3705.58
3410.41
3159.1
2949.53
2778.99
2644.32
2542.06
2468.56
2420.12
2393.07
2383.85
2389.12
2405.8
2431.14
2462.76
2498.69
2537.42
2577.81
2619.2
2661.26
2704.02
2747.8
2793.11
2840.6
2891.02
2945.05
3003.3
3066.21
3133.99
3206.54
3283.5
3364.21
3447.78
3533.2
3619.41
3705.54
3790.93
3875.37
3959.09
4042.78
4127.51
4214.54
4305.06
4399.89
4499.26
4602.52
4708.12
4813.68
4916.19
5012.45
5099.48
5174.93
5237.5
5287.04
5324.59
5352.11
5372.09
5387.09
5399.25
5409.9
5419.4
5427.06
5431.43
5430.63
5422.85
5406.78
5382.01
5349.19
5310.09
5267.35
5224.14
5183.72
5149
5122.12
5104.19
5095.16
5093.82
5097.96
5104.61
5110.36
5111.65
5105.13
5087.88
5057.7
5013.19
4953.88
4880.21
4793.48
4695.72
4589.55
4477.99
4364.24
4251.49
4142.73
4040.6
3947.25
3864.3
3792.76
3733.08
3685.14
3648.4
3621.93
3604.55
3594.95
3591.79
3593.84
3600
3609.43
3621.57
3636.14
3653.17
3672.93
3695.88
3722.59
3753.64
3789.54
3830.59
3876.81
3927.85
3982.95
4040.91
4100.14
4158.7
4214.43
4265.05
4308.36
4342.37
4365.5
4376.68
4375.45
4362.04
4337.36
4302.93
4260.75
4213.23
4162.92
4112.38
4063.94
4019.61
3980.9
3948.75
3923.53
3905.06
3892.65
3885.25
3881.53
3880
3879.07
3877.07
3872.17
3862.13
3843.77
3811.93
3757.4
3663
3495.92
3193.15
2634.03
1586.76
302.369
440.209
15000
14989.8
14972.4
14945.1
14904.3
14846.1
14765.8
14658.6
14519.3
14343.1
14125.5
13862.6
13551.7
13191.2
12781.2
12323.2
11820.4
11277.5
10700.7
10097.2
9475.29
8843.57
8211.01
7586.4
6978.09
6393.71
5839.92
5322.26
4845.03
4411.28
4022.78
3680.14
3382.9
3129.67
2918.32
2746.11
2609.88
2506.16
2431.35
2381.77
2353.8
2343.95
2348.91
2365.65
2391.43
2423.86
2460.94
2501.06
2543.03
2586.03
2629.65
2673.79
2718.65
2764.66
2812.43
2862.63
2915.98
2973.12
3034.54
3100.52
3171.11
3246.05
3324.81
3406.63
3490.59
3575.72
3661.18
3746.32
3830.88
3915.02
3999.32
4084.75
4172.48
4263.66
4359.12
4459.13
4563.17
4669.83
4776.87
4881.43
4980.34
5070.59
5149.76
5216.32
5269.91
5311.3
5342.21
5364.97
5382.03
5395.53
5406.91
5416.64
5424.24
5428.42
5427.46
5419.65
5403.7
5379.18
5346.66
5307.79
5265.1
5221.64
5180.62
5144.89
5116.61
5096.96
5085.95
5082.49
5084.5
5089.11
5092.99
5092.69
5084.89
5066.74
5036.03
4991.36
4932.25
4859.09
4773.12
4676.34
4571.29
4460.93
4348.38
4236.77
4129.03
4027.77
3935.1
3852.61
3781.32
3721.67
3673.59
3636.54
3609.65
3591.8
3581.73
3578.17
3579.93
3585.97
3595.49
3607.95
3623.11
3640.97
3661.79
3685.97
3714.04
3746.48
3783.72
3825.95
3873.09
3924.7
3979.93
4037.53
4095.87
4153.03
4206.86
4255.18
4295.9
4327.15
4347.51
4356.04
4352.46
4337.11
4311
4275.7
4233.27
4186.05
4136.54
4087.2
4040.25
3997.54
3960.44
3929.77
3905.79
3888.24
3876.41
3869.24
3865.44
3863.58
3862.14
3859.54
3854.01
3843.34
3824.39
3791.99
3737.01
3642.35
3475.49
3174.01
2618.28
1581.9
302.364
441.039
15000
14989.9
14972.8
14946
14905.8
14848.5
14769.3
14663.4
14525.8
14351.5
14136
13875.2
13566.4
13207.9
12799.5
12342.7
11840.5
11297.6
10720
10115.1
9490.98
8856.45
8220.55
7592.21
6979.89
6391.37
5833.41
5311.68
4830.55
4393.1
4001.16
3655.33
3355.13
3099.17
2885.27
2710.69
2572.25
2466.5
2389.83
2338.62
2309.29
2298.41
2302.73
2319.23
2345.22
2378.29
2416.4
2457.88
2501.42
2546.12
2591.4
2637.05
2683.15
2730.02
2778.17
2828.26
2880.97
2936.96
2996.79
3060.85
3129.27
3201.95
3278.48
3358.26
3440.48
3524.28
3608.85
3693.57
3778.12
3862.59
3947.47
4033.61
4122.09
4213.98
4310.14
4410.87
4515.78
4623.61
4732.29
4839.08
4940.89
5034.69
5117.95
5188.94
5247.04
5292.73
5327.49
5353.43
5372.91
5388.06
5400.39
5410.54
5418.22
5422.35
5421.37
5413.65
5397.97
5373.84
5341.75
5303.21
5260.6
5216.87
5175.13
5138.2
5108.26
5086.54
5073.18
5067.2
5066.65
5068.81
5070.46
5068.24
5058.92
5039.66
5008.3
4963.42
4904.51
4831.93
4746.87
4651.23
4547.51
4438.56
4327.45
4217.22
4110.75
4010.57
3918.77
3836.91
3765.99
3706.47
3658.3
3620.99
3593.71
3575.39
3564.84
3560.87
3562.33
3568.25
3577.88
3590.72
3606.53
3625.31
3647.28
3672.82
3702.35
3736.29
3774.95
3818.4
3866.46
3918.57
3973.79
4030.83
4088.02
4143.44
4195.01
4240.64
4278.34
4306.44
4323.64
4329.22
4323.04
4305.58
4277.97
4241.84
4199.25
4152.53
4104.09
4056.27
4011.13
3970.39
3935.24
3906.36
3883.89
3867.48
3856.36
3849.48
3845.56
3843.23
3841.05
3837.5
3830.87
3819.03
3798.87
3765.32
3709.3
3613.95
3447.14
3147.35
2596.94
1571.68
302.363
441.435
15000
14990.1
14973.4
14947
14907.6
14851.3
14773.4
14669.3
14533.7
14361.8
14148.8
13890.9
13584.9
13229.2
12823.3
12368.6
11867.9
11325.8
10748.1
10142.3
9516.32
8879.16
8239.88
7607.55
6990.78
6397.49
5834.6
5307.91
4821.9
4379.75
3983.33
3633.29
3329.15
3069.52
2852.21
2674.45
2533.06
2424.58
2345.44
2292.02
2260.81
2248.41
2251.62
2267.49
2293.33
2326.73
2365.63
2408.28
2453.3
2499.64
2546.61
2593.85
2641.29
2689.14
2737.83
2787.92
2840.08
2894.98
2953.23
3015.29
3081.43
3151.67
3225.77
3303.26
3383.48
3465.67
3549.11
3633.18
3717.55
3802.22
3887.58
3974.38
4063.58
4156.2
4253.07
4354.57
4460.4
4569.46
4679.85
4788.97
4893.82
4991.36
5078.93
5154.64
5217.57
5267.93
5306.9
5336.38
5358.63
5375.73
5389.29
5400.11
5408.1
5412.38
5411.56
5404.14
5388.91
5365.34
5333.82
5295.71
5253.24
5209.22
5166.65
5128.35
5096.49
5072.4
5056.32
5047.43
5043.93
5043.26
5042.33
5037.88
5026.77
5006.22
4974.08
4928.94
4870.24
4798.31
4714.26
4619.94
4517.73
4410.42
4300.98
4192.37
4087.39
3988.52
3897.79
3816.73
3746.35
3687.1
3638.94
3601.44
3573.82
3555.07
3544.07
3539.69
3540.88
3546.7
3556.47
3569.72
3586.22
3605.97
3629.17
3656.11
3687.16
3722.63
3762.7
3807.34
3856.23
3908.71
3963.75
4019.98
4075.72
4129.07
4178.02
4220.57
4254.91
4279.5
4293.27
4295.66
4286.72
4267.09
4237.99
4201.12
4158.55
4112.56
4065.47
4019.49
3976.52
3938.1
3905.24
3878.47
3857.78
3842.73
3832.49
3825.97
3821.92
3818.99
3815.8
3810.9
3802.65
3789.02
3766.97
3731.54
3673.85
3577.33
3410.43
3112.76
2568.99
1559.25
302.365
441.088
15000
14990.3
14974
14948.2
14909.6
14854.4
14778
14675.8
14542.5
14373.3
14163.5
13909
13606.6
13254.4
12851.9
12400.2
11902
11361.5
10784.7
10178.7
9551.53
8912.16
8269.74
7633.43
7012
6413.52
5845.1
5312.68
4820.92
4373.1
3971.19
3615.91
3306.82
3042.53
2820.87
2639.07
2493.91
2381.96
2299.64
2243.38
2209.67
2195.18
2196.76
2211.49
2236.71
2270.03
2309.34
2352.87
2399.13
2446.96
2495.54
2544.36
2593.21
2642.16
2691.51
2741.76
2793.51
2847.44
2904.18
2964.27
3028.08
3095.78
3167.28
3242.28
3320.26
3400.59
3482.62
3565.78
3649.73
3734.4
3820.09
3907.42
3997.27
4090.58
4188.15
4290.4
4397.15
4507.45
4619.55
4731.01
4838.92
4940.25
5032.25
5112.82
5180.79
5236.06
5279.54
5312.9
5338.24
5357.63
5372.74
5384.53
5393.1
5397.79
5397.39
5390.5
5375.94
5353.13
5322.35
5284.78
5242.5
5198.18
5154.71
5114.87
5080.87
5054.11
5034.99
5022.84
5016.03
5012.17
5008.33
5001.38
4988.25
4966.23
4933.2
4887.73
4829.26
4758.03
4675.1
4582.24
4481.73
4376.26
4268.7
4161.94
4058.69
3961.34
3871.9
3791.85
3722.18
3663.34
3615.34
3577.76
3549.88
3530.77
3519.38
3514.65
3515.59
3521.35
3531.3
3544.98
3562.2
3582.95
3607.38
3635.74
3668.29
3705.25
3746.67
3792.39
3841.96
3894.61
3949.22
4004.36
4058.33
4109.28
4155.26
4194.41
4225.06
4245.89
4256.01
4255.07
4243.31
4221.51
4191
4153.54
4111.21
4066.21
4020.78
3976.96
3936.5
3900.72
3870.49
3846.14
3827.53
3814.08
3804.9
3798.85
3794.66
3791.01
3786.55
3779.9
3769.52
3753.44
3728.8
3690.8
3630.8
3532.65
3365.55
3070.47
2534.79
1547.63
302.372
440.216
15000
14990.6
14974.5
14949.3
14911.6
14857.5
14782.7
14682.5
14551.7
14385.5
14179.1
13928.3
13630
13282.1
12883.8
12435.9
11941.1
11403.3
10828.3
10223
9595.55
8954.68
8309.64
7669.66
7043.66
6439.86
5865.57
5326.9
4828.69
4374.39
3966.1
3604.63
3289.62
3019.72
2792.79
2606.06
2456.31
2340.11
2253.89
2194.08
2157.23
2140.03
2139.37
2152.38
2176.44
2209.15
2248.42
2292.41
2339.56
2388.63
2438.64
2488.96
2539.21
2589.33
2639.48
2690.04
2741.57
2794.68
2850.05
2908.25
2969.78
3034.91
3103.72
3176.07
3251.6
3329.81
3410.16
3492.13
3575.37
3659.78
3745.58
3833.27
3923.63
4017.52
4115.71
4218.65
4326.26
4437.72
4551.46
4665.18
4776.08
4881.15
4977.55
5063.02
5136.13
5196.49
5244.71
5282.23
5310.99
5333.02
5350.05
5363.15
5372.66
5378.09
5378.4
5372.31
5358.67
5336.83
5306.94
5270.05
5228.03
5183.4
5138.97
5097.46
5061.12
5031.47
5009.02
4993.3
4982.87
4975.52
4968.49
4958.78
4943.43
4919.79
4885.76
4839.93
4781.67
4711.2
4629.5
4538.22
4439.57
4336.13
4230.66
4125.96
4024.64
3929.05
3841.1
3762.25
3693.47
3635.22
3587.52
3550
3521.99
3502.62
3490.92
3485.91
3486.66
3492.41
3502.56
3516.7
3534.66
3556.4
3582.05
3611.78
3645.77
3684.12
3726.76
3773.39
3823.43
3876
3929.9
3983.64
4035.53
4083.74
4126.44
4161.89
4188.61
4205.47
4211.81
4207.47
4192.88
4168.99
4137.22
4099.37
4057.51
4013.79
3970.3
3928.96
3891.31
3858.51
3831.21
3809.57
3793.3
3781.69
3773.75
3768.28
3763.97
3759.5
3753.55
3744.79
3731.78
3712.69
3684.81
3643.59
3580.73
3480.6
3313.26
3021.28
2494.82
1523.84
302.371
438.563
15000
14990.8
14975.1
14950.4
14913.4
14860.5
14787.2
14688.8
14560.5
14397.2
14194.3
13947.5
13653.6
13310.3
12916.6
12473.4
11982.8
11448.7
10876.5
10273
9646.17
9004.73
8357.87
7714.86
7084.72
6475.83
5895.66
5350.53
4845.48
4384.14
3968.78
3600.35
3278.6
3002.25
2769.2
2576.7
2421.58
2300.36
2209.51
2145.48
2104.81
2084.25
2080.72
2091.39
2113.67
2145.2
2183.87
2227.81
2275.43
2325.37
2376.56
2428.2
2479.79
2531.08
2582.12
2633.15
2684.63
2737.14
2791.32
2847.8
2907.13
2969.73
3035.82
3105.41
3178.31
3254.17
3332.56
3413.03
3495.26
3579.12
3664.74
3752.55
3843.21
3937.51
4036.19
4139.7
4248.04
4360.53
4475.76
4591.59
4705.31
4813.96
4914.65
5004.95
5083.21
5148.75
5201.9
5243.84
5276.35
5301.39
5320.73
5335.56
5346.38
5352.92
5354.29
5349.3
5336.84
5316.19
5287.38
5251.29
5209.6
5164.69
5119.26
5076
5037.2
5004.45
4978.46
4958.93
4944.64
4933.55
4923.1
4910.43
4892.68
4867.29
4832.18
4785.94
4727.92
4658.25
4577.85
4488.27
4391.62
4290.37
4187.18
4084.73
3985.54
3891.89
3805.63
3728.18
3660.48
3603
3555.76
3518.45
3490.44
3470.94
3459.04
3453.83
3454.47
3460.26
3470.65
3485.27
3503.96
3526.67
3553.49
3584.51
3619.83
3659.43
3703.1
3750.42
3800.68
3852.89
3905.77
3957.8
4007.28
4052.45
4091.58
4123.09
4145.69
4158.45
4160.93
4153.2
4135.85
4109.99
4077.13
4039.12
3997.98
3955.79
3914.53
3875.94
3841.38
3811.82
3787.71
3769.03
3755.33
3745.77
3739.23
3734.44
3730.03
3724.65
3717.01
3705.84
3689.79
3667.2
3635.58
3590.66
3524.55
3422.22
3254.69
2966.22
2450.07
1503.13
302.373
437.141
15000
14990.9
14975.5
14951.2
14914.9
14862.9
14790.9
14694.2
14568.1
14407.5
14207.8
13964.9
13675.2
13336.6
12948
12509.7
12024
11494.3
10925.9
10325.3
9700.25
9059.36
8411.73
7766.64
7133.14
6519.74
5934.07
5382.64
4870.7
4402.1
3979.29
3603.39
3274.29
2990.82
2750.96
2551.99
2390.77
2263.86
2167.72
2098.79
2053.67
2029.11
2022.07
2029.77
2049.63
2079.35
2116.81
2160.15
2207.71
2258.09
2310.09
2362.81
2415.57
2468
2519.96
2571.59
2623.2
2675.31
2728.52
2783.47
2840.78
2900.94
2964.33
3031.11
3101.24
3174.55
3250.71
3329.38
3410.26
3493.23
3578.36
3665.99
3756.7
3851.18
3950.13
4054.03
4162.92
4276.25
4392.75
4510.44
4626.74
4738.74
4843.51
4938.51
5021.85
5092.61
5150.82
5197.42
5234
5262.45
5284.51
5301.52
5314.09
5322.14
5324.93
5321.38
5310.37
5291.15
5263.6
5228.44
5187.18
5142.04
5095.62
5050.56
5009.21
4973.26
4943.58
4920.08
4901.74
4886.74
4872.69
4856.91
4836.65
4809.41
4773.16
4726.48
4668.69
4599.87
4520.84
4433.07
4338.54
4239.61
4138.84
4038.79
3941.92
3850.38
3765.98
3690.1
3623.66
3567.11
3520.51
3483.56
3455.7
3436.2
3424.21
3418.91
3419.53
3425.42
3436.09
3451.21
3470.62
3494.26
3522.17
3554.38
3590.89
3631.55
3676.03
3723.79
3774
3825.54
3877.09
3927.08
3973.85
4015.71
4051.02
4078.4
4096.73
4105.32
4103.94
4092.88
4072.9
4045.23
4011.49
3973.53
3933.35
3892.94
3854.15
3818.52
3787.27
3761.14
3740.4
3724.86
3713.88
3706.49
3701.44
3697.37
3692.83
3686.46
3676.97
3663.14
3643.76
3617.34
3581.64
3532.75
3463.22
3358.65
3191.12
2906.63
2401.5
1475.5
302.367
434.937
15000
14991
14975.8
14951.8
14915.9
14864.5
14793.4
14698
14573.6
14415.2
14218.3
13978.7
13693
13358.8
12975
12542
12061.4
11536.8
10972.9
10376.2
9754.08
9114.96
8467.81
7821.82
7186.07
6569.1
5978.69
5421.53
4903.06
4427.34
3997.04
3613.48
3276.71
2985.7
2738.53
2532.56
2364.69
2231.51
2129.49
2055.1
2004.94
1975.78
1964.63
1968.73
1985.55
2012.82
2048.44
2090.56
2137.5
2187.8
2240.18
2293.63
2347.34
2400.77
2453.65
2505.93
2557.83
2609.74
2662.21
2715.85
2771.33
2829.21
2889.98
2953.94
3021.24
3091.82
3165.51
3242.08
3321.28
3403
3487.28
3574.4
3664.83
3759.22
3858.19
3962.23
4071.42
4185.33
4302.83
4422.09
4540.66
4655.7
4764.29
4863.76
4952.07
5028.02
5091.39
5142.87
5183.85
5216.08
5241.33
5260.97
5275.76
5285.75
5290.36
5288.57
5279.31
5261.74
5235.65
5201.58
5160.87
5115.58
5068.21
5021.38
4977.47
4938.29
4904.86
4877.3
4854.81
4835.79
4818.05
4799.05
4776.19
4747.04
4709.61
4662.48
4604.94
4537
4459.4
4373.49
4281.17
4184.68
4086.44
3988.93
3894.48
3805.2
3722.81
3648.66
3583.62
3528.16
3482.34
3445.92
3418.36
3398.98
3387.04
3381.76
3382.44
3388.5
3399.49
3415.13
3435.24
3459.76
3488.67
3521.94
3559.46
3600.98
3646.04
3693.97
3743.82
3794.4
3844.3
3891.96
3935.74
3974.03
4005.35
4028.45
4042.45
4046.85
4041.67
4027.38
4004.92
3975.64
3941.23
3903.55
3864.55
3826.12
3789.96
3757.47
3729.65
3707.05
3689.76
3677.4
3669.18
3663.96
3660.38
3656.97
3652.21
3644.72
3633.2
3616.53
3593.63
3563.21
3523.34
3470.43
3397.54
3290.94
3123.73
2843.7
2350.35
1453.63
302.364
432.958
15000
14991.1
14975.9
14952
14916.3
14865.2
14794.6
14699.9
14576.5
14419.6
14224.7
13987.7
13705.2
13374.8
12995.5
12567.4
12092.1
11572.7
11014.1
10422.1
9803.91
9167.79
8522.44
7876.93
7240.24
6620.96
6026.92
5464.95
4940.68
4458.37
4020.92
3629.84
3285.4
2986.72
2732.01
2518.72
2343.83
2203.96
2095.61
2015.29
1959.59
1925.32
1909.51
1909.44
1922.62
1946.81
1979.97
2020.24
2065.95
2115.6
2167.87
2221.63
2275.97
2330.2
2383.89
2436.84
2489.12
2541
2592.94
2645.52
2699.38
2755.17
2813.45
2874.66
2939.08
3006.82
3077.85
3152.04
3229.23
3309.34
3392.4
3478.63
3568.44
3662.4
3761.08
3864.96
3974.17
4088.35
4206.53
4327.01
4447.49
4565.22
4677.29
4780.98
4874.08
4955.16
5023.76
5080.29
5125.96
5162.38
5191.26
5214
5231.48
5243.87
5250.69
5251.03
5243.8
5228.15
5203.73
5170.91
5130.89
5085.58
5037.38
4988.87
4942.46
4900.09
4862.93
4831.31
4804.65
4781.57
4760.09
4737.84
4712.34
4681.25
4642.62
4595.04
4537.75
4470.71
4394.57
4310.59
4220.54
4126.54
4030.91
3936.01
3844.09
3757.16
3676.9
3604.58
3541.07
3486.84
3441.95
3406.17
3379.05
3359.95
3348.17
3343.01
3343.85
3350.15
3361.51
3377.66
3398.45
3423.78
3453.59
3487.78
3526.13
3568.29
3613.68
3661.51
3710.71
3760.02
3808
3853.06
3893.61
3928.14
3955.31
3974.06
3983.7
3983.98
3975.09
3957.72
3932.96
3902.29
3867.41
3830.22
3792.58
3756.29
3722.88
3693.6
3669.23
3650.16
3636.27
3627
3621.4
3618.19
3615.9
3612.95
3607.77
3598.94
3585.22
3565.58
3539.07
3504.67
3460.71
3404
3328.06
3219.84
3053.47
2778.62
2298.68
1431.03
302.343
432.31
15000
14991
14975.8
14951.8
14916
14864.8
14794.1
14699.5
14576.4
14420.2
14226.3
13990.9
13710.7
13383.3
13007.7
12583.9
12113.6
11599.6
11046.3
10459.6
9846.37
9214.36
8572.12
7928.5
7292.36
6672.2
6075.89
5510.35
4981.35
4493.33
4049.42
3651.34
3299.55
2993.36
2731.13
2510.45
2328.37
2181.58
2066.63
1980.03
1918.43
1878.63
1857.71
1852.97
1861.97
1882.51
1912.59
1950.39
1994.24
2042.65
2094.25
2147.84
2202.41
2257.14
2311.45
2365
2417.69
2469.65
2521.25
2572.99
2625.49
2679.41
2735.38
2793.94
2855.51
2920.34
2988.55
3060.13
3135.01
3213.16
3294.62
3379.58
3468.39
3561.55
3659.6
3762.97
3871.86
3985.98
4104.46
4225.78
4347.78
4467.81
4583
4690.6
4788.26
4874.38
4948.21
5009.96
5060.59
5101.56
5134.51
5160.84
5181.48
5196.71
5206.16
5208.98
5204.1
5190.62
5168.08
5136.73
5097.6
5052.45
5003.58
4953.54
4904.78
4859.34
4818.55
4782.95
4752.18
4725.08
4699.88
4674.37
4646.22
4613.18
4573.34
4525.3
4468.27
4402.14
4327.48
4245.45
4157.69
4066.22
3973.24
3881
3791.66
3707.14
3629.06
3558.66
3496.78
3443.86
3400.01
3365.01
3338.44
3319.73
3308.22
3303.3
3304.38
3310.98
3322.74
3339.42
3360.85
3386.93
3417.53
3452.48
3491.48
3534.06
3579.53
3626.98
3675.26
3723.04
3768.82
3811.04
3848.18
3878.81
3901.75
3916.12
3921.45
3917.68
3905.24
3884.98
3858.14
3826.28
3791.16
3754.64
3718.52
3684.47
3653.87
3627.78
3606.8
3591.11
3580.41
3573.97
3570.69
3569.15
3567.78
3564.91
3558.97
3548.51
3532.38
3509.64
3479.56
3441.33
3393.58
3333.51
3255.08
3145.87
2981
2711.81
2243.88
1389.69
302.285
432.473
15000
14990.9
14975.4
14951.2
14915
14863.3
14792.1
14696.9
14573.4
14416.8
14223
13988.1
13709.1
13383.6
13010.7
12590.6
12124.5
11615.6
11067.8
10486.7
9878.92
9251.94
8613.97
7973.59
7339.46
6719.95
6122.89
5555.21
5022.79
4530.24
4080.85
3676.56
3318.05
3004.81
2735.37
2507.48
2318.27
2164.53
2042.86
1949.81
1882.06
1836.45
1810.06
1800.24
1804.6
1820.97
1847.41
1882.14
1923.53
1970.07
2020.41
2073.29
2127.61
2182.47
2237.13
2291.11
2344.17
2396.28
2447.68
2498.78
2550.15
2602.42
2656.29
2712.35
2771.15
2833.07
2898.37
2967.15
3039.46
3115.33
3194.83
3278.13
3365.55
3457.53
3554.57
3657.09
3765.29
3878.97
3997.38
4119.13
4242.23
4364.13
4482.06
4593.22
4695.19
4786.18
4865.24
4932.32
4988.14
5034
5071.42
5101.78
5126.05
5144.56
5157.04
5162.7
5160.49
5149.46
5129.07
5099.42
5061.4
5016.63
4967.33
4915.99
4865.11
4816.79
4772.56
4733.12
4698.36
4667.33
4638.46
4609.74
4578.96
4543.98
4502.93
4454.43
4397.65
4332.43
4259.24
4179.14
4093.67
4004.71
3914.38
3824.8
3738.04
3655.96
3580.09
3511.65
3451.45
3399.93
3357.19
3323.06
3297.14
3278.91
3267.79
3263.18
3264.57
3271.53
3283.73
3300.92
3322.96
3349.71
3380.99
3416.55
3456.02
3498.8
3544.11
3590.93
3638.03
3684.01
3727.37
3766.57
3800.14
3826.79
3845.47
3855.5
3856.61
3848.95
3833.15
3810.21
3781.53
3748.71
3713.56
3677.89
3643.41
3611.66
3583.87
3560.87
3543.11
3530.54
3522.68
3518.65
3517.19
3516.79
3515.79
3512.48
3505.28
3492.82
3474.02
3448.11
3414.55
3372.78
3321.73
3258.92
3178.74
3069.32
2906.68
2643.48
2187.05
1358.72
302.26
430.073
15000
14990.7
14975
14950.2
14913.4
14860.9
14788.7
14692.4
14567.7
14410
14215.3
13979.9
13700.8
13376.2
13004.9
12587.3
12124.8
11620.3
11077.6
10502.2
9900.16
9278.83
8646.04
8010.06
7379.27
6761.88
6165.58
5597.28
5062.9
4567.16
4113.5
3704.06
3339.7
3020.12
2744.03
2509.32
2313.26
2152.74
2024.41
1924.91
1850.91
1799.31
1767.23
1752.03
1751.37
1763.15
1785.45
1816.55
1854.88
1898.96
1947.42
1999
2052.55
2107.07
2161.74
2215.91
2269.19
2321.43
2372.71
2423.33
2473.78
2524.66
2576.64
2630.41
2686.58
2745.64
2807.98
2873.84
2943.37
3016.69
3093.89
3175.17
3260.82
3351.24
3446.89
3548.18
3655.32
3768.18
3886.11
4007.89
4131.65
4255
4375.24
4489.6
4595.59
4691.26
4775.48
4847.93
4909.12
4960.16
5002.42
5037.22
5065.54
5087.76
5103.66
5112.51
5113.29
5105.01
5087.05
5059.38
5022.75
4978.66
4929.21
4876.87
4824.13
4773.22
4725.78
4682.73
4644.14
4609.31
4576.88
4545
4511.63
4474.72
4432.46
4383.48
4326.92
4262.58
4190.82
4112.62
4029.4
3942.93
3855.2
3768.24
3684.04
3604.36
3530.71
3464.23
3405.72
3355.63
3314.06
3280.85
3255.66
3238
3227.32
3223.11
3224.87
3232.22
3244.86
3262.57
3285.17
3312.5
3344.34
3380.37
3420.11
3462.89
3507.81
3553.76
3599.45
3643.43
3684.19
3720.22
3750.13
3772.75
3787.2
3792.98
3790.02
3778.67
3759.73
3734.37
3704.09
3670.57
3635.6
3600.94
3568.21
3538.8
3513.74
3493.7
3478.88
3469.06
3463.58
3461.38
3461.1
3461.14
3459.8
3455.38
3446.35
3431.43
3409.7
3380.57
3343.71
3298.81
3245.07
3180.29
3099.22
2990.5
2830.89
2574.45
2131.55
1325.93
302.227
428.644
15000
14990.5
14974.3
14949
14911.4
14857.8
14784.3
14686.5
14560
14400.5
14204.1
13967.2
13687.2
13362.2
12991.5
12575.4
12115.5
11614.6
11076.4
10506.3
9910.01
9294.59
8667.54
8036.8
7410.45
6796.44
6202.3
5634.85
5099.97
4602.46
4145.86
3732.46
3363.31
3038.3
2756.31
2515.38
2312.95
2145.98
2011.25
1905.41
1825.23
1767.61
1729.71
1708.95
1703.01
1709.83
1727.58
1754.57
1789.29
1830.31
1876.28
1925.96
1978.16
2031.84
2086.06
2140.09
2193.38
2245.64
2296.81
2347.06
2396.76
2446.46
2496.82
2548.51
2602.22
2658.55
2717.96
2780.85
2847.46
2917.99
2992.62
3071.55
3155.07
3243.57
3337.46
3437.14
3542.85
3654.5
3771.57
3892.96
4016.95
4141.31
4263.44
4380.61
4490.29
4590.42
4679.66
4757.49
4824.17
4880.6
4928
4967.6
5000.35
5026.66
5046.36
5058.76
5062.86
5057.64
5042.41
5017.03
4982.11
4939.03
4889.78
4836.79
4782.55
4729.36
4679.01
4632.58
4590.38
4551.92
4516.04
4481.09
4445.17
4406.34
4362.86
4313.36
4256.99
4193.47
4123.09
4046.72
3965.67
3881.61
3796.41
3712.01
3630.3
3552.98
3481.49
3416.94
3360.12
3311.45
3271.06
3238.82
3214.39
3197.34
3187.17
3183.39
3185.56
3193.33
3206.42
3224.61
3247.72
3275.55
3307.84
3344.18
3384.01
3426.58
3470.89
3515.77
3559.84
3601.63
3639.63
3672.39
3698.6
3717.22
3727.52
3729.19
3722.34
3707.53
3685.72
3658.23
3626.64
3592.66
3558.09
3524.61
3493.73
3466.66
3444.25
3426.94
3414.75
3407.23
3403.56
3402.52
3402.67
3402.35
3399.86
3393.59
3382.09
3364.27
3339.36
3307.01
3267.11
3219.57
3163.84
3097.94
3016.92
2909.81
2754.05
2504.88
2074.4
1289.72
302.209
428.354
15000
14990.2
14973.7
14947.7
14909.2
14854.5
14779.4
14679.8
14551.3
14389.6
14190.8
13951.8
13670.1
13343.9
12972.7
12557.1
12098.8
11600.5
11066.1
10500.5
9909.63
9300.02
8678.88
8053.84
7432.66
6823.01
6232.18
5666.85
5132.84
4634.93
4176.73
3760.65
3387.87
3058.45
2771.45
2525.06
2316.86
2143.95
2003.18
1891.29
1805.1
1741.55
1697.85
1671.44
1660.05
1661.67
1674.52
1696.98
1727.6
1765.01
1807.91
1855.07
1905.33
1957.59
2010.87
2064.34
2117.35
2169.44
2220.43
2270.34
2319.44
2368.17
2417.12
2466.99
2518.47
2572.21
2628.81
2688.74
2752.36
2819.95
2891.78
2968.08
3049.16
3135.39
3227.17
3324.89
3428.81
3538.9
3654.72
3775.3
3899.11
4024.05
4147.64
4267.22
4380.24
4484.54
4578.63
4661.77
4733.98
4795.95
4848.72
4893.42
4930.92
4961.66
4985.5
5001.78
5009.52
5007.68
4995.51
4972.76
4939.92
4898.22
4849.56
4796.3
4740.95
4685.85
4632.92
4583.41
4537.83
4495.91
4456.71
4418.77
4380.34
4339.59
4294.86
4244.81
4188.55
4125.77
4056.68
3982.04
3903.07
3821.32
3738.56
3656.62
3577.31
3502.27
3432.86
3370.19
3315.01
3267.74
3228.52
3197.23
3173.58
3157.16
3147.51
3144.19
3146.79
3154.99
3168.51
3187.15
3210.71
3238.94
3271.54
3308.04
3347.8
3389.97
3433.48
3477.07
3519.34
3558.79
3593.93
3623.35
3645.86
3660.53
3666.8
3664.55
3654.06
3636.07
3611.7
3582.38
3549.77
3515.62
3481.68
3449.54
3420.58
3395.84
3375.96
3361.16
3351.22
3345.51
3343.01
3342.42
3342.19
3340.68
3336.24
3327.37
3312.82
3291.67
3263.41
3227.91
3185.29
3135.69
3078.71
3012.57
2932.53
2827.92
2676.79
2435.6
2019.93
1270.94
302.223
428.845
15000
14990
14973.1
14946.5
14907.1
14851.2
14774.7
14673.2
14542.5
14378.4
14177.2
13935.7
13651.7
13323.6
12951.2
12535.3
12077.5
11580.9
11049.3
10487.5
9901.3
9297
8681.55
8062.26
7446.57
6841.86
6255.17
5692.98
5160.98
4663.9
4205.35
3787.81
3412.56
3079.82
2788.77
2537.78
2324.54
2146.29
1999.97
1882.41
1790.49
1721.22
1671.81
1639.76
1622.86
1619.12
1626.82
1644.42
1670.52
1703.82
1743.09
1787.15
1834.86
1885.12
1936.92
1989.36
2041.69
2093.35
2144.01
2193.55
2242.11
2290.03
2337.81
2386.1
2435.59
2486.98
2540.92
2597.97
2658.6
2723.19
2792.06
2865.51
2943.89
3027.55
3116.91
3212.35
3314.14
3422.32
3536.53
3655.94
3779.15
3904.25
4028.88
4150.45
4266.42
4374.59
4473.3
4561.61
4639.32
4706.89
4765.18
4815.18
4857.71
4893.17
4921.44
4941.9
4953.59
4955.46
4946.68
4926.92
4896.52
4856.61
4808.97
4755.88
4699.82
4643.2
4588.03
4535.75
4487.04
4441.86
4399.46
4358.6
4317.69
4275.01
4228.99
4178.31
4122.09
4059.94
3992.03
3919.01
3842.01
3762.45
3682