<?xml version="1.0"?>
<VTKFile type="ImageData" version="0.1" byte_order="LittleEndian">
  <ImageData Origin="0 0 0" Spacing="1e-05 1e-05 1e-05" WholeExtent="0 191 0 191 0 0">
    <Piece Extent="0 191 0 191 0 0">
      <CellData Scalars="T">
        <DataArray type="Float32" Name="T" format="ascii" NumberOfComponents="1">
703.624
15000
15000
15000
15000
15000
15000
15000
15000
14999.9
14999.9
14999.9
14999.9
14999.8
14999.8
14999.7
14999.7
14999.6
14999.5
14999.5
14999.4
14999.3
14999.2
14999.1
14999.1
14999
14998.9
14998.9
14998.8
14998.8
14998.8
14998.8
14998.8
14998.8
14998.8
14998.8
14998.9
14998.9
14999
14999
14999.1
14999.2
14999.2
14999.3
14999.4
14999.4
14999.5
14999.5
14999.6
14999.6
14999.7
14999.7
14999.7
14999.7
14999.7
14999.7
14999.7
14999.6
14999.6
14999.5
14999.4
14999.3
14999.2
14999
14998.8
14998.5
14998.2
14997.9
14997.4
14996.9
14996.3
14995.6
14994.7
14993.7
14992.5
14991.1
14989.5
14987.6
14985.4
14982.9
14980
14976.6
14972.6
14968.2
14963
14957.1
14950.4
14942.8
14934.2
14924.4
14913.4
14900.9
14887
14871.3
14853.8
14834.2
14812.5
14788.3
14761.5
14731.9
14699.3
14663.4
14624
14580.9
14533.8
14482.5
14426.7
14366.1
14300.6
14229.9
14153.7
14071.9
13984.1
13890.2
13790.1
13683.4
13570.1
13450.1
13323.1
13189.2
13048.3
12900.4
12745.4
12583.4
12414.6
12238.9
12056.6
11867.8
11672.7
11471.7
11265.1
11053.1
10836.1
10614.5
10388.9
10159.5
9927.02
9691.85
9454.55
9215.68
8975.81
8735.52
8495.4
8256.02
8017.98
7781.87
7548.25
7317.7
7090.76
6867.96
6649.81
6436.8
6229.37
6027.96
5832.96
5644.72
5463.58
5289.82
5123.68
4965.39
4815.12
4673
4539.13
4413.58
4296.36
4187.48
4086.88
3994.5
3910.22
3833.92
3765.43
3704.57
3651.13
3604.88
3565.56
3532.9
3506.6
3486.31
3471.65
3462.11
3457.05
3455.48
3455.86
3455.53
3449.76
3429.86
3379.55
3267.78
3034.03
2556.24
1573.14
337.229
2575.97
15000
15000
15000
15000
15000
15000
15000
15000
14999.9
14999.9
14999.9
14999.9
14999.8
14999.8
14999.7
14999.6
14999.6
14999.5
14999.4
14999.3
14999.2
14999.2
14999.1
14999
14998.9
14998.8
14998.8
14998.7
14998.7
14998.7
14998.7
14998.7
14998.7
14998.7
14998.7
14998.8
14998.8
14998.9
14999
14999
14999.1
14999.2
14999.2
14999.3
14999.4
14999.4
14999.5
14999.5
14999.6
14999.6
14999.7
14999.7
14999.7
14999.7
14999.7
14999.7
14999.6
14999.6
14999.5
14999.4
14999.3
14999.2
14999
14998.8
14998.5
14998.2
14997.9
14997.4
14996.9
14996.3
14995.6
14994.7
14993.7
14992.5
14991.1
14989.5
14987.6
14985.4
14982.9
14980
14976.6
14972.7
14968.2
14963
14957.2
14950.5
14942.8
14934.2
14924.4
14913.4
14901
14887
14871.3
14853.8
14834.3
14812.5
14788.3
14761.6
14732
14699.4
14663.5
14624.1
14581
14533.9
14482.6
14426.8
14366.2
14300.7
14230
14153.8
14072
13984.2
13890.4
13790.2
13683.5
13570.3
13450.2
13323.3
13189.4
13048.5
12900.5
12745.6
12583.6
12414.7
12239.1
12056.7
11867.9
11672.9
11471.9
11265.2
11053.2
10836.2
10614.7
10389
10159.7
9927.13
9691.94
9454.62
9215.73
8975.84
8735.52
8495.36
8255.95
8017.88
7781.73
7548.07
7317.48
7090.49
6867.65
6649.45
6436.38
6228.9
6027.43
5832.37
5644.07
5462.86
5289.03
5122.83
4964.47
4814.13
4671.93
4537.99
4412.37
4295.08
4186.12
4085.45
3992.99
3908.64
3832.26
3763.7
3702.77
3649.26
3602.93
3563.54
3530.81
3504.44
3484.09
3469.36
3459.77
3454.65
3453.04
3453.4
3453.09
3447.44
3427.96
3378.87
3270.81
3049.2
2615.11
1804.69
534.227
2557.78
15000
15000
15000
15000
15000
15000
15000
15000
14999.9
14999.9
14999.9
14999.8
14999.8
14999.7
14999.7
14999.6
14999.5
14999.4
14999.3
14999.2
14999.1
14999
14998.9
14998.9
14998.8
14998.7
14998.6
14998.6
14998.5
14998.5
14998.5
14998.5
14998.5
14998.5
14998.6
14998.6
14998.7
14998.8
14998.8
14998.9
14999
14999.1
14999.2
14999.2
14999.3
14999.4
14999.4
14999.5
14999.5
14999.6
14999.6
14999.6
14999.7
14999.7
14999.7
14999.6
14999.6
14999.6
14999.5
14999.4
14999.3
14999.2
14999
14998.8
14998.5
14998.2
14997.9
14997.4
14996.9
14996.3
14995.6
14994.7
14993.7
14992.5
14991.1
14989.5
14987.6
14985.4
14982.9
14980
14976.6
14972.7
14968.2
14963
14957.2
14950.5
14942.9
14934.2
14924.5
14913.4
14901
14887
14871.4
14853.8
14834.3
14812.6
14788.4
14761.6
14732.1
14699.4
14663.6
14624.2
14581.1
14534
14482.7
14426.9
14366.4
14300.9
14230.2
14154
14072.2
13984.4
13890.6
13790.4
13683.8
13570.5
13450.5
13323.6
13189.7
13048.8
12900.9
12745.9
12584
12415.1
12239.4
12057.1
11868.3
11673.3
11472.3
11265.6
11053.6
10836.6
10615
10389.3
10159.9
9927.35
9692.13
9454.77
9215.84
8975.89
8735.52
8495.3
8255.83
8017.68
7781.46
7547.72
7317.04
7089.96
6867.02
6648.72
6435.55
6227.95
6026.37
5831.19
5642.76
5461.43
5287.47
5121.13
4962.64
4812.15
4669.82
4535.73
4409.96
4292.52
4183.41
4082.59
3989.99
3905.48
3828.96
3760.25
3699.17
3645.51
3599.04
3559.51
3526.65
3500.14
3479.66
3464.8
3455.09
3449.86
3448.16
3448.46
3448.17
3442.7
3423.77
3376.15
3271.72
3058.65
2641.83
1846.61
532.46
2511.3
15000
15000
15000
15000
15000
15000
15000
14999.9
14999.9
14999.9
14999.9
14999.8
14999.8
14999.7
14999.6
14999.5
14999.4
14999.3
14999.2
14999.1
14999
14998.9
14998.8
14998.7
14998.6
14998.5
14998.4
14998.3
14998.3
14998.2
14998.2
14998.2
14998.2
14998.3
14998.3
14998.4
14998.5
14998.5
14998.6
14998.7
14998.8
14998.9
14999
14999.1
14999.2
14999.3
14999.3
14999.4
14999.5
14999.5
14999.6
14999.6
14999.6
14999.6
14999.6
14999.6
14999.6
14999.5
14999.5
14999.4
14999.3
14999.2
14999
14998.8
14998.5
14998.2
14997.9
14997.4
14996.9
14996.3
14995.6
14994.7
14993.7
14992.5
14991.1
14989.5
14987.6
14985.5
14982.9
14980
14976.6
14972.7
14968.2
14963.1
14957.2
14950.5
14942.9
14934.3
14924.5
14913.5
14901
14887.1
14871.4
14853.9
14834.4
14812.6
14788.5
14761.7
14732.2
14699.6
14663.7
14624.4
14581.3
14534.2
14482.9
14427.1
14366.6
14301.1
14230.5
14154.3
14072.5
13984.8
13890.9
13790.8
13684.2
13570.9
13450.9
13324
13190.2
13049.3
12901.4
12746.4
12584.5
12415.6
12240
12057.6
11868.9
11673.8
11472.8
11266.1
11054.1
10837.1
10615.5
10389.7
10160.3
9927.69
9692.41
9454.99
9215.99
8975.98
8735.52
8495.21
8255.64
8017.39
7781.05
7547.2
7316.39
7089.18
6866.09
6647.64
6434.31
6226.55
6024.79
5829.43
5640.82
5459.3
5285.14
5118.6
4959.9
4809.21
4666.66
4532.36
4406.36
4288.71
4179.38
4078.33
3985.5
3900.78
3824.03
3755.1
3693.8
3639.92
3593.24
3553.5
3520.42
3493.72
3473.04
3457.99
3448.1
3442.71
3440.87
3441.06
3440.75
3435.44
3417.01
3370.63
3268.96
3061.54
2655.1
1876.77
534.623
2435
15000
15000
15000
15000
15000
15000
15000
14999.9
14999.9
14999.9
14999.8
14999.8
14999.7
14999.6
14999.5
14999.4
14999.3
14999.2
14999.1
14998.9
14998.8
14998.7
14998.5
14998.4
14998.3
14998.2
14998.1
14998
14997.9
14997.9
14997.9
14997.9
14997.9
14997.9
14998
14998.1
14998.1
14998.2
14998.3
14998.5
14998.6
14998.7
14998.8
14998.9
14999
14999.1
14999.2
14999.3
14999.4
14999.4
14999.5
14999.5
14999.6
14999.6
14999.6
14999.6
14999.6
14999.5
14999.5
14999.4
14999.3
14999.1
14999
14998.8
14998.5
14998.2
14997.9
14997.4
14996.9
14996.3
14995.6
14994.7
14993.7
14992.5
14991.2
14989.5
14987.7
14985.5
14982.9
14980
14976.6
14972.7
14968.2
14963.1
14957.2
14950.5
14942.9
14934.3
14924.5
14913.5
14901.1
14887.1
14871.5
14854
14834.5
14812.8
14788.6
14761.9
14732.3
14699.8
14663.9
14624.6
14581.5
14534.4
14483.2
14427.4
14366.9
14301.5
14230.8
14154.7
14072.9
13985.2
13891.4
13791.3
13684.7
13571.5
13451.5
13324.6
13190.8
13050
12902.1
12747.1
12585.2
12416.3
12240.7
12058.4
11869.6
11674.6
11473.5
11266.8
11054.8
10837.7
10616.1
10390.3
10160.8
9928.14
9692.79
9455.3
9216.21
8976.09
8735.53
8495.1
8255.4
8017.02
7780.53
7546.51
7315.53
7088.14
6864.86
6646.21
6432.67
6224.69
6022.71
5827.11
5638.26
5456.48
5282.06
5115.26
4956.28
4805.31
4662.48
4527.89
4401.61
4283.66
4174.04
4072.7
3979.57
3894.55
3817.5
3748.28
3686.69
3632.52
3585.55
3545.53
3512.19
3485.21
3464.27
3448.98
3438.84
3433.23
3431.19
3431.23
3430.85
3425.62
3407.58
3362.15
3262.54
3059.24
2660.85
1898.27
556.206
2435
15000
15000
15000
15000
15000
15000
14999.9
14999.9
14999.9
14999.8
14999.8
14999.7
14999.7
14999.6
14999.5
14999.3
14999.2
14999.1
14998.9
14998.7
14998.6
14998.4
14998.2
14998.1
14997.9
14997.8
14997.7
14997.6
14997.5
14997.5
14997.4
14997.4
14997.5
14997.5
14997.6
14997.7
14997.8
14997.9
14998
14998.1
14998.3
14998.4
14998.6
14998.7
14998.8
14998.9
14999.1
14999.2
14999.3
14999.3
14999.4
14999.5
14999.5
14999.5
14999.6
14999.6
14999.5
14999.5
14999.4
14999.4
14999.3
14999.1
14999
14998.8
14998.5
14998.2
14997.9
14997.4
14996.9
14996.3
14995.6
14994.7
14993.7
14992.5
14991.2
14989.5
14987.7
14985.5
14982.9
14980
14976.6
14972.7
14968.2
14963.1
14957.3
14950.6
14943
14934.4
14924.6
14913.6
14901.2
14887.2
14871.6
14854.1
14834.6
14812.9
14788.8
14762.1
14732.5
14700
14664.1
14624.8
14581.8
14534.7
14483.5
14427.8
14367.3
14301.9
14231.3
14155.2
14073.4
13985.8
13892
13791.9
13685.4
13572.2
13452.2
13325.4
13191.6
13050.8
12902.9
12748
12586.1
12417.2
12241.6
12059.3
11870.5
11675.5
11474.4
11267.7
11055.6
10838.5
10616.8
10391
10161.5
9928.71
9693.27
9455.68
9216.48
8976.25
8735.55
8494.98
8255.12
8016.56
7779.88
7545.67
7314.48
7086.87
6863.35
6644.45
6430.65
6222.4
6020.14
5824.24
5635.09
5453
5278.26
5111.13
4951.81
4800.5
4657.32
4522.37
4395.73
4277.42
4167.43
4065.72
3972.22
3886.83
3809.42
3739.83
3677.88
3623.36
3576.04
3535.67
3501.98
3474.67
3453.41
3437.8
3427.37
3421.47
3419.18
3419.01
3418.5
3413.27
3395.47
3350.74
3252.59
3052.02
2658.38
1904.14
560.684
2435
15000
15000
15000
15000
15000
15000
14999.9
14999.9
14999.9
14999.8
14999.8
14999.7
14999.6
14999.5
14999.3
14999.2
14999
14998.9
14998.7
14998.5
14998.3
14998.1
14997.9
14997.7
14997.5
14997.4
14997.2
14997.1
14997
14997
14996.9
14996.9
14997
14997
14997.1
14997.2
14997.3
14997.4
14997.6
14997.8
14997.9
14998.1
14998.3
14998.4
14998.6
14998.7
14998.9
14999
14999.1
14999.2
14999.3
14999.4
14999.4
14999.5
14999.5
14999.5
14999.5
14999.5
14999.4
14999.4
14999.3
14999.1
14999
14998.8
14998.5
14998.2
14997.9
14997.4
14996.9
14996.3
14995.6
14994.7
14993.7
14992.6
14991.2
14989.6
14987.7
14985.5
14983
14980
14976.6
14972.8
14968.3
14963.2
14957.3
14950.6
14943
14934.4
14924.7
14913.7
14901.3
14887.3
14871.7
14854.3
14834.8
14813.1
14789
14762.3
14732.8
14700.2
14664.4
14625.1
14582.1
14535.1
14483.9
14428.2
14367.8
14302.4
14231.8
14155.8
14074.1
13986.4
13892.7
13792.7
13686.2
13573
13453.1
13326.3
13192.5
13051.7
12903.9
12749
12587.1
12418.3
12242.7
12060.4
11871.6
11676.5
11475.5
11268.7
11056.6
10839.5
10617.7
10391.8
10162.2
9929.39
9693.86
9456.15
9216.82
8976.44
8735.59
8494.84
8254.79
8016.03
7779.14
7544.69
7313.25
7085.37
6861.58
6642.38
6428.27
6219.7
6017.1
5820.86
5631.34
5448.88
5273.76
5106.24
4946.52
4794.8
4651.2
4515.83
4388.76
4270.02
4159.59
4057.45
3963.51
3877.69
3799.84
3729.81
3667.43
3612.48
3564.74
3523.96
3489.86
3462.15
3440.5
3424.52
3413.73
3407.5
3404.89
3404.46
3403.75
3398.44
3380.77
3336.49
3239.33
3040.54
2649.82
1901.62
568.328
2435
15000
15000
15000
15000
15000
15000
14999.9
14999.9
14999.8
14999.8
14999.7
14999.6
14999.5
14999.4
14999.2
14999.1
14998.9
14998.7
14998.4
14998.2
14998
14997.7
14997.5
14997.3
14997.1
14996.9
14996.7
14996.6
14996.5
14996.4
14996.3
14996.3
14996.4
14996.4
14996.5
14996.6
14996.8
14996.9
14997.1
14997.3
14997.5
14997.7
14997.9
14998.1
14998.3
14998.5
14998.6
14998.8
14998.9
14999.1
14999.2
14999.3
14999.3
14999.4
14999.4
14999.5
14999.5
14999.4
14999.4
14999.3
14999.2
14999.1
14999
14998.8
14998.5
14998.2
14997.9
14997.4
14996.9
14996.3
14995.6
14994.7
14993.7
14992.6
14991.2
14989.6
14987.7
14985.5
14983
14980.1
14976.7
14972.8
14968.3
14963.2
14957.4
14950.7
14943.1
14934.5
14924.8
14913.8
14901.4
14887.5
14871.9
14854.4
14834.9
14813.3
14789.2
14762.5
14733
14700.5
14664.7
14625.5
14582.5
14535.5
14484.4
14428.7
14368.3
14303
14232.4
14156.5
14074.8
13987.2
13893.5
13793.5
13687.1
13574
13454.1
13327.3
13193.6
13052.9
12905.1
12750.2
12588.3
12419.6
12243.9
12061.6
11872.9
11677.8
11476.7
11270
11057.8
10840.6
10618.8
10392.8
10163.1
9930.2
9694.55
9456.71
9217.23
8976.68
8735.65
8494.7
8254.44
8015.44
7778.3
7543.58
7311.85
7083.67
6859.55
6640.02
6425.55
6216.61
6013.62
5816.98
5627.05
5444.16
5268.6
5100.62
4940.44
4788.25
4644.17
4508.32
4380.75
4261.51
4150.58
4047.93
3953.49
3867.16
3788.81
3718.28
3655.4
3599.96
3551.73
3510.47
3475.9
3447.74
3425.64
3409.22
3398.01
3391.38
3388.42
3387.66
3386.69
3381.22
3363.55
3319.51
3222.86
3024.61
2632.65
1872.5
538.77
2435
15000
15000
15000
15000
15000
14999.9
14999.9
14999.9
14999.8
14999.8
14999.7
14999.6
14999.4
14999.3
14999.1
14998.9
14998.7
14998.4
14998.2
14997.9
14997.6
14997.4
14997.1
14996.8
14996.6
14996.3
14996.1
14996
14995.8
14995.7
14995.7
14995.7
14995.7
14995.8
14995.9
14996
14996.2
14996.4
14996.6
14996.8
14997
14997.3
14997.5
14997.7
14998
14998.2
14998.4
14998.6
14998.7
14998.9
14999
14999.1
14999.2
14999.3
14999.4
14999.4
14999.4
14999.4
14999.4
14999.3
14999.2
14999.1
14998.9
14998.7
14998.5
14998.2
14997.9
14997.4
14996.9
14996.3
14995.6
14994.8
14993.8
14992.6
14991.2
14989.6
14987.7
14985.5
14983
14980.1
14976.7
14972.8
14968.4
14963.3
14957.4
14950.8
14943.2
14934.6
14924.9
14913.9
14901.5
14887.6
14872
14854.6
14835.1
14813.5
14789.4
14762.8
14733.3
14700.9
14665.1
14625.9
14582.9
14536
14484.9
14429.3
14368.9
14303.7
14233.2
14157.2
14075.6
13988.1
13894.4
13794.5
13688.1
13575
13455.2
13328.5
13194.8
13054.1
12906.4
12751.6
12589.7
12421
12245.4
12063.1
11874.3
11679.2
11478.2
11271.3
11059.1
10841.9
10620
10394
10164.2
9931.13
9695.35
9457.36
9217.71
8976.98
8735.74
8494.57
8254.06
8014.8
7777.37
7542.35
7310.3
7081.77
6857.3
6637.38
6422.52
6213.16
6009.73
5812.64
5622.24
5438.87
5262.81
5094.32
4933.63
4780.9
4636.28
4499.88
4371.76
4251.95
4140.46
4037.24
3942.23
3855.32
3776.4
3705.31
3641.86
3585.86
3537.08
3495.28
3460.18
3431.5
3408.89
3391.98
3380.3
3373.22
3369.83
3368.69
3367.4
3361.71
3343.93
3299.98
3203.6
3005.61
2613.03
1848.75
530.304
2435
15000
15000
15000
15000
15000
14999.9
14999.9
14999.9
14999.8
14999.7
14999.6
14999.5
14999.4
14999.2
14999
14998.8
14998.5
14998.2
14997.9
14997.6
14997.3
14997
14996.6
14996.3
14996
14995.8
14995.5
14995.3
14995.2
14995.1
14995
14995
14995
14995.1
14995.2
14995.4
14995.6
14995.8
14996
14996.3
14996.5
14996.8
14997.1
14997.4
14997.6
14997.9
14998.1
14998.3
14998.5
14998.7
14998.9
14999
14999.1
14999.2
14999.3
14999.3
14999.3
14999.3
14999.3
14999.3
14999.2
14999.1
14998.9
14998.7
14998.5
14998.2
14997.9
14997.4
14996.9
14996.3
14995.6
14994.8
14993.8
14992.6
14991.2
14989.6
14987.7
14985.6
14983
14980.1
14976.7
14972.9
14968.4
14963.3
14957.5
14950.8
14943.3
14934.7
14925
14914
14901.7
14887.8
14872.2
14854.8
14835.4
14813.7
14789.7
14763.1
14733.7
14701.2
14665.5
14626.3
14583.4
14536.6
14485.5
14429.9
14369.6
14304.4
14234
14158.1
14076.5
13989
13895.5
13795.6
13689.2
13576.3
13456.5
13329.8
13196.2
13055.6
12907.9
12753.1
12591.3
12422.6
12247
12064.7
11875.9
11680.9
11479.8
11272.9
11060.7
10843.4
10621.4
10395.3
10165.4
9932.19
9696.26
9458.11
9218.28
8977.34
8735.88
8494.46
8253.68
8014.13
7776.39
7541.03
7308.62
7079.72
6854.84
6634.5
6419.19
6209.37
6005.46
5807.87
5616.96
5433.05
5256.44
5087.39
4926.11
4772.79
4627.58
4490.56
4361.83
4241.4
4129.27
4025.42
3929.78
3842.24
3762.69
3690.96
3626.89
3570.27
3520.88
3478.48
3442.79
3413.52
3390.35
3372.89
3360.68
3353.1
3349.23
3347.67
3346
3340.02
3322.1
3278.18
3182.13
2984.93
2594.17
1834.52
526.879
2435
15000
15000
15000
15000
15000
14999.9
14999.9
14999.8
14999.8
14999.7
14999.6
14999.4
14999.3
14999.1
14998.8
14998.6
14998.3
14998
14997.7
14997.3
14996.9
14996.6
14996.2
14995.8
14995.5
14995.2
14994.9
14994.7
14994.5
14994.4
14994.3
14994.3
14994.3
14994.4
14994.5
14994.7
14994.9
14995.1
14995.4
14995.7
14996
14996.3
14996.6
14996.9
14997.2
14997.5
14997.8
14998.1
14998.3
14998.5
14998.7
14998.8
14999
14999.1
14999.2
14999.2
14999.3
14999.3
14999.3
14999.2
14999.2
14999.1
14998.9
14998.7
14998.5
14998.2
14997.9
14997.4
14996.9
14996.3
14995.6
14994.8
14993.8
14992.6
14991.2
14989.6
14987.8
14985.6
14983.1
14980.2
14976.8
14972.9
14968.5
14963.4
14957.6
14950.9
14943.4
14934.8
14925.1
14914.2
14901.8
14888
14872.4
14855
14835.6
14814
14790
14763.4
14734.1
14701.6
14666
14626.8
14584
14537.2
14486.1
14430.6
14370.4
14305.2
14234.8
14159
14077.5
13990.1
13896.6
13796.8
13690.5
13577.6
13457.9
13331.3
13197.7
13057.1
12909.5
12754.8
12593
12424.3
12248.7
12066.5
11877.7
11682.6
11481.5
11274.6
11062.3
10845
10623
10396.7
10166.7
9933.38
9697.29
9458.96
9218.93
8977.78
8736.06
8494.38
8253.3
8013.44
7775.35
7539.63
7306.83
7077.51
6852.2
6631.4
6415.61
6205.28
6000.85
5802.71
5611.23
5426.74
5249.53
5079.86
4917.95
4763.99
4618.12
4480.44
4351.03
4229.92
4117.11
4012.57
3916.23
3828
3747.75
3675.34
3610.58
3553.28
3503.22
3460.15
3423.82
3393.91
3370.12
3352.06
3339.27
3331.13
3326.74
3324.69
3322.6
3316.29
3298.2
3254.37
3158.92
2963.51
2577.69
1830.57
530.259
2435
15000
15000
15000
15000
15000
14999.9
14999.9
14999.8
14999.7
14999.7
14999.5
14999.4
14999.2
14999
14998.7
14998.4
14998.1
14997.8
14997.4
14997
14996.6
14996.2
14995.7
14995.3
14995
14994.6
14994.3
14994
14993.8
14993.7
14993.6
14993.5
14993.5
14993.6
14993.8
14994
14994.2
14994.5
14994.8
14995.1
14995.4
14995.8
14996.2
14996.5
14996.8
14997.2
14997.5
14997.8
14998
14998.3
14998.5
14998.7
14998.9
14999
14999.1
14999.2
14999.2
14999.2
14999.2
14999.2
14999.1
14999
14998.9
14998.7
14998.5
14998.2
14997.9
14997.4
14996.9
14996.3
14995.6
14994.8
14993.8
14992.6
14991.2
14989.6
14987.8
14985.6
14983.1
14980.2
14976.8
14973
14968.5
14963.4
14957.6
14951
14943.5
14934.9
14925.2
14914.3
14902
14888.1
14872.6
14855.3
14835.9
14814.3
14790.4
14763.8
14734.5
14702.1
14666.5
14627.4
14584.6
14537.8
14486.8
14431.4
14371.2
14306.1
14235.8
14160
14078.6
13991.3
13897.9
13798.1
13691.9
13579.1
13459.4
13332.9
13199.4
13058.9
12911.3
12756.6
12594.9
12426.2
12250.7
12068.5
11879.7
11684.6
11483.5
11276.5
11064.2
10846.8
10624.7
10398.3
10168.2
9934.7
9698.45
9459.92
9219.68
8978.28
8736.3
8494.33
8252.94
8012.73
7774.28
7538.16
7304.95
7075.18
6849.4
6628.1
6411.79
6200.92
5995.92
5797.19
5605.1
5419.98
5242.13
5071.79
4909.21
4754.55
4607.97
4469.57
4339.43
4217.58
4104.03
3998.74
3901.65
3812.67
3731.67
3658.51
3593.02
3534.98
3484.2
3440.41
3403.37
3372.78
3348.31
3329.6
3316.17
3307.42
3302.46
3299.88
3297.33
3290.67
3272.38
3228.69
3134.01
2940.73
2560.25
1828.71
533.798
2435
15000
15000
15000
15000
14999.9
14999.9
14999.9
14999.8
14999.7
14999.6
14999.5
14999.3
14999.1
14998.9
14998.6
14998.3
14997.9
14997.6
14997.1
14996.7
14996.2
14995.8
14995.3
14994.9
14994.4
14994
14993.7
14993.4
14993.1
14993
14992.8
14992.8
14992.8
14992.9
14993
14993.3
14993.5
14993.8
14994.1
14994.5
14994.9
14995.3
14995.7
14996.1
14996.4
14996.8
14997.2
14997.5
14997.8
14998.1
14998.3
14998.5
14998.7
14998.9
14999
14999.1
14999.2
14999.2
14999.2
14999.2
14999.1
14999
14998.9
14998.7
14998.5
14998.2
14997.9
14997.4
14996.9
14996.3
14995.6
14994.8
14993.8
14992.6
14991.3
14989.7
14987.8
14985.6
14983.1
14980.2
14976.9
14973
14968.6
14963.5
14957.7
14951.1
14943.6
14935.1
14925.4
14914.5
14902.2
14888.4
14872.9
14855.5
14836.2
14814.6
14790.7
14764.2
14734.9
14702.6
14667
14628
14585.2
14538.5
14487.6
14432.2
14372.1
14307.1
14236.8
14161.2
14079.8
13992.6
13899.2
13799.5
13693.4
13580.6
13461.1
13334.6
13201.2
13060.7
12913.2
12758.6
12596.9
12428.3
12252.8
12070.6
11881.8
11686.7
11485.6
11278.6
11066.2
10848.7
10626.5
10400.1
10169.8
9936.16
9699.72
9461
9220.53
8978.87
8736.61
8494.33
8252.61
8012.03
7773.19
7536.66
7302.99
7072.75
6846.46
6624.64
6407.78
6196.33
5990.72
5791.36
5598.62
5412.83
5234.28
5063.24
4899.92
4744.52
4597.18
4458.02
4327.1
4204.46
4090.11
3984.03
3886.14
3796.35
3714.55
3640.59
3574.3
3515.48
3463.91
3419.36
3381.56
3350.22
3325.03
3305.61
3291.5
3282.1
3276.52
3273.37
3270.32
3263.26
3244.78
3201.25
3107.39
2916.12
2539.58
1812.74
534.314
2435
15000
15000
15000
15000
14999.9
14999.9
14999.9
14999.8
14999.7
14999.6
14999.5
14999.3
14999.1
14998.8
14998.5
14998.2
14997.8
14997.4
14996.9
14996.4
14996
14995.4
14994.9
14994.4
14994
14993.5
14993.1
14992.8
14992.5
14992.3
14992.2
14992.1
14992.1
14992.2
14992.4
14992.6
14992.8
14993.2
14993.5
14993.9
14994.3
14994.8
14995.2
14995.6
14996
14996.5
14996.8
14997.2
14997.5
14997.8
14998.1
14998.4
14998.6
14998.7
14998.9
14999
14999.1
14999.1
14999.2
14999.1
14999.1
14999
14998.9
14998.7
14998.5
14998.2
14997.9
14997.4
14996.9
14996.3
14995.6
14994.8
14993.8
14992.6
14991.3
14989.7
14987.8
14985.7
14983.2
14980.3
14976.9
14973.1
14968.7
14963.6
14957.8
14951.2
14943.7
14935.2
14925.5
14914.7
14902.4
14888.6
14873.1
14855.8
14836.5
14815
14791.1
14764.6
14735.4
14703.1
14667.6
14628.6
14585.9
14539.3
14488.4
14433.1
14373.1
14308.1
14238
14162.4
14081.1
13993.9
13900.6
13801.1
13695
13582.3
13462.9
13336.5
13203.2
13062.8
12915.3
12760.7
12599.1
12430.5
12255.1
12072.9
11884.1
11689
11487.8
11280.8
11068.4
10850.8
10628.5
10401.9
10171.5
9937.75
9701.13
9462.19
9221.48
8979.55
8737
8494.39
8252.31
8011.36
7772.1
7535.12
7300.99
7070.24
6843.42
6621.04
6403.59
6191.53
5985.28
5785.26
5591.83
5405.33
5226.05
5054.25
4890.17
4733.98
4585.84
4445.85
4314.11
4190.64
4075.45
3968.51
3869.77
3779.13
3696.48
3621.67
3554.53
3494.87
3442.47
3397.1
3358.5
3326.37
3300.41
3280.23
3265.4
3255.29
3249.05
3245.28
3241.69
3234.22
3215.52
3172.12
3079.05
2889.77
2517.47
1803.39
580.511
2435
15000
15000
15000
15000
14999.9
14999.9
14999.9
14999.8
14999.7
14999.6
14999.4
14999.2
14999
14998.7
14998.4
14998.1
14997.7
14997.2
14996.7
14996.2
14995.7
14995.2
14994.6
14994.1
14993.6
14993.1
14992.6
14992.3
14992
14991.7
14991.6
14991.5
14991.5
14991.6
14991.7
14991.9
14992.2
14992.6
14992.9
14993.4
14993.8
14994.3
14994.7
14995.2
14995.7
14996.1
14996.5
14996.9
14997.3
14997.6
14997.9
14998.2
14998.4
14998.6
14998.8
14998.9
14999
14999.1
14999.1
14999.1
14999.1
14999
14998.8
14998.7
14998.5
14998.2
14997.9
14997.4
14996.9
14996.4
14995.6
14994.8
14993.8
14992.7
14991.3
14989.7
14987.9
14985.7
14983.2
14980.3
14977
14973.2
14968.7
14963.7
14957.9
14951.3
14943.8
14935.3
14925.7
14914.8
14902.6
14888.8
14873.4
14856.1
14836.8
14815.4
14791.5
14765.1
14735.9
14703.7
14668.2
14629.3
14586.7
14540.1
14489.3
14434
14374.1
14309.2
14239.1
14163.6
14082.4
13995.4
13902.2
13802.7
13696.8
13584.2
13464.8
13338.5
13205.2
13064.9
12917.5
12763
12601.4
12432.9
12257.5
12075.3
11886.6
11691.5
11490.3
11283.2
11070.7
10853.1
10630.7
10404
10173.4
9939.48
9702.66
9463.5
9222.54
8980.33
8737.47
8494.52
8252.07
8010.71
7771.02
7533.58
7298.95
7067.68
6840.3
6617.34
6399.27
6186.56
5979.65
5778.93
5584.77
5397.52
5217.47
5044.88
4879.99
4722.97
4573.99
4433.15
4300.54
4176.18
4060.11
3952.28
3852.64
3761.1
3677.55
3601.84
3533.81
3473.27
3419.99
3373.76
3334.3
3301.34
3274.55
3253.58
3237.97
3227.13
3220.18
3215.76
3211.6
3203.67
3184.71
3141.41
3049.05
2861.55
2492.69
1780.25
525.259
2485.92
15000
15000
15000
15000
14999.9
14999.9
14999.9
14999.8
14999.7
14999.6
14999.4
14999.2
14999
14998.7
14998.4
14998
14997.6
14997.1
14996.6
14996.1
14995.5
14994.9
14994.3
14993.8
14993.2
14992.7
14992.2
14991.8
14991.5
14991.2
14991
14990.9
14990.9
14991
14991.2
14991.4
14991.7
14992
14992.4
14992.9
14993.3
14993.8
14994.3
14994.8
14995.3
14995.8
14996.2
14996.7
14997.1
14997.4
14997.8
14998.1
14998.3
14998.5
14998.7
14998.8
14999
14999
14999.1
14999.1
14999
14999
14998.8
14998.7
14998.5
14998.2
14997.9
14997.4
14997
14996.4
14995.7
14994.8
14993.8
14992.7
14991.3
14989.8
14987.9
14985.8
14983.3
14980.4
14977.1
14973.2
14968.8
14963.8
14958
14951.5
14944
14935.5
14925.9
14915
14902.8
14889.1
14873.7
14856.4
14837.2
14815.8
14792
14765.6
14736.4
14704.3
14668.9
14630
14587.4
14540.9
14490.2
14435.1
14375.2
14310.4
14240.4
14165
14083.9
13996.9
13903.8
13804.4
13698.6
13586.1
13466.8
13340.6
13207.4
13067.2
12919.8
12765.4
12603.9
12435.4
12260
12077.9
11889.2
11694.1
11492.8
11285.8
11073.2
10855.5
10633
10406.2
10175.5
9941.35
9704.33
9464.93
9223.71
8981.21
8738.03
8494.72
8251.89
8010.11
7769.97
7532.05
7296.9
7065.08
6837.13
6613.55
6394.84
6181.46
5973.85
5772.4
5577.49
5389.46
5208.61
5035.2
4869.46
4711.58
4561.71
4419.98
4286.45
4161.18
4044.18
3935.41
3834.83
3742.35
3657.86
3581.22
3512.25
3450.78
3396.59
3349.44
3309.09
3275.25
3247.61
3225.8
3209.37
3197.74
3190.05
3184.95
3180.17
3171.75
3152.51
3109.25
3017.44
2831.13
2463.55
1749.16
518.926
2513.56
15000
15000
15000
15000
14999.9
14999.9
14999.8
14999.8
14999.7
14999.6
14999.4
14999.2
14999
14998.7
14998.3
14998
14997.5
14997
14996.5
14996
14995.4
14994.8
14994.2
14993.6
14993
14992.4
14991.9
14991.5
14991.1
14990.8
14990.6
14990.5
14990.5
14990.5
14990.7
14990.9
14991.2
14991.6
14992
14992.4
14992.9
14993.4
14994
14994.5
14995
14995.5
14996
14996.4
14996.9
14997.3
14997.6
14997.9
14998.2
14998.4
14998.6
14998.8
14998.9
14999
14999
14999
14999
14998.9
14998.8
14998.7
14998.5
14998.2
14997.9
14997.4
14997
14996.4
14995.7
14994.8
14993.9
14992.7
14991.4
14989.8
14987.9
14985.8
14983.3
14980.4
14977.1
14973.3
14968.9
14963.9
14958.1
14951.6
14944.1
14935.7
14926.1
14915.3
14903.1
14889.4
14874
14856.8
14837.6
14816.2
14792.4
14766.1
14737
14704.9
14669.6
14630.8
14588.3
14541.8
14491.2
14436.1
14376.3
14311.6
14241.7
14166.4
14085.4
13998.5
13905.5
13806.3
13700.5
13588.1
13468.9
13342.8
13209.7
13069.6
12922.3
12768
12606.5
12438.1
12262.8
12080.6
11891.9
11696.8
11495.6
11288.5
11075.9
10858.1
10635.5
10408.5
10177.7
9943.35
9706.12
9466.49
9224.99
8982.2
8738.68
8495.01
8251.78
8009.57
7768.97
7530.54
7294.86
7062.48
6833.92
6609.71
6390.34
6176.26
5967.92
5765.72
5570.03
5381.19
5199.51
5025.24
4858.62
4699.85
4549.07
4406.4
4271.94
4145.71
4027.74
3918
3816.45
3722.99
3637.52
3559.9
3489.96
3427.52
3372.37
3324.27
3282.99
3248.23
3219.69
3197
3179.73
3167.28
3158.8
3152.98
3147.56
3138.62
3119.08
3075.88
2984.75
2800.19
2436.46
1731.9
517.419
2565.44
15000
15000
15000
15000
14999.9
14999.9
14999.8
14999.8
14999.7
14999.6
14999.4
14999.2
14999
14998.7
14998.3
14997.9
14997.5
14997
14996.5
14995.9
14995.3
14994.7
14994.1
14993.4
14992.8
14992.3
14991.7
14991.3
14990.9
14990.6
14990.3
14990.2
14990.2
14990.2
14990.3
14990.6
14990.9
14991.2
14991.6
14992.1
14992.6
14993.1
14993.7
14994.2
14994.7
14995.3
14995.8
14996.2
14996.7
14997.1
14997.5
14997.8
14998.1
14998.3
14998.5
14998.7
14998.8
14998.9
14999
14999
14999
14998.9
14998.8
14998.7
14998.4
14998.2
14997.9
14997.5
14997
14996.4
14995.7
14994.9
14993.9
14992.7
14991.4
14989.8
14988
14985.8
14983.4
14980.5
14977.2
14973.4
14969
14964
14958.3
14951.7
14944.3
14935.8
14926.3
14915.5
14903.3
14889.6
14874.3
14857.1
14838
14816.6
14792.9
14766.7
14737.6
14705.6
14670.3
14631.6
14589.1
14542.8
14492.2
14437.2
14377.5
14312.9
14243.1
14167.9
14087
14000.2
13907.3
13808.2
13702.5
13590.2
13471.1
13345.1
13212.1
13072.1
12924.9
12770.6
12609.3
12440.9
12265.6
12083.5
11894.8
11699.7
11498.5
11291.3
11078.7
10860.8
10638.1
10411
10180
9945.49
9708.05
9468.17
9226.4
8983.3
8739.44
8495.39
8251.75
8009.1
7768.01
7529.07
7292.85
7059.88
6830.71
6605.85
6385.79
6170.99
5961.91
5758.93
5562.43
5372.76
5190.22
5015.07
4847.55
4687.85
4536.13
4392.5
4257.06
4129.85
4010.88
3900.14
3797.58
3703.11
3616.62
3537.98
3467.04
3403.59
3347.45
3298.38
3256.12
3220.41
3190.93
3167.33
3149.17
3135.87
3126.58
3120
3113.91
3104.45
3084.61
3041.56
2951.41
2769.6
2412.77
1725.12
523.444
2549.66
15000
15000
15000
15000
14999.9
14999.9
14999.9
14999.8
14999.7
14999.6
14999.4
14999.2
14999
14998.7
14998.3
14998
14997.5
14997
14996.5
14995.9
14995.3
14994.7
14994.1
14993.4
14992.8
14992.2
14991.7
14991.2
14990.8
14990.4
14990.2
14990
14990
14990
14990.1
14990.3
14990.6
14991
14991.4
14991.9
14992.4
14992.9
14993.4
14994
14994.6
14995.1
14995.6
14996.1
14996.6
14997
14997.4
14997.7
14998
14998.3
14998.5
14998.7
14998.8
14998.9
14999
14999
14999
14998.9
14998.8
14998.6
14998.4
14998.2
14997.9
14997.5
14997
14996.4
14995.7
14994.9
14993.9
14992.8
14991.4
14989.8
14988
14985.9
14983.4
14980.6
14977.3
14973.5
14969.1
14964.1
14958.4
14951.9
14944.4
14936
14926.5
14915.7
14903.6
14889.9
14874.6
14857.5
14838.4
14817.1
14793.4
14767.2
14738.2
14706.2
14671
14632.4
14590
14543.8
14493.3
14438.4
14378.8
14314.3
14244.6
14169.4
14088.7
14002
13909.2
13810.2
13704.6
13592.4
13473.5
13347.6
13214.7
13074.7
12927.6
12773.4
12612.1
12443.8
12268.6
12086.5
11897.9
11702.8
11501.5
11294.3
11081.6
10863.6
10640.8
10413.6
10182.4
9947.76
9710.1
9469.97
9227.92
8984.51
8740.3
8495.87
8251.81
8008.7
7767.13
7527.66
7290.87
7057.31
6827.5
6601.97
6381.21
6165.69
5955.84
5752.06
5554.74
5364.22
5180.79
5004.74
4836.29
4675.64
4522.95
4378.34
4241.9
4113.67
3993.68
3881.91
3778.3
3682.79
3595.26
3515.58
3443.6
3379.12
3321.95
3271.86
3228.61
3191.91
3161.47
3136.92
3117.84
3103.65
3093.52
3086.16
3079.37
3069.37
3049.26
3006.43
2917.5
2739.13
2391.52
1726.38
527.082
2447.67
15000
15000
15000
15000
14999.9
14999.9
14999.9
14999.8
14999.7
14999.6
14999.4
14999.2
14999
14998.7
14998.4
14998
14997.6
14997.1
14996.6
14996
14995.4
14994.8
14994.1
14993.5
14992.9
14992.3
14991.7
14991.2
14990.8
14990.4
14990.2
14990
14989.9
14989.9
14990
14990.2
14990.5
14990.8
14991.3
14991.7
14992.2
14992.8
14993.3
14993.9
14994.4
14995
14995.5
14996
14996.5
14996.9
14997.3
14997.6
14997.9
14998.2
14998.4
14998.6
14998.8
14998.9
14998.9
14999
14999
14998.9
14998.8
14998.6
14998.4
14998.2
14997.9
14997.5
14997
14996.4
14995.7
14994.9
14993.9
14992.8
14991.4
14989.9
14988.1
14985.9
14983.5
14980.6
14977.3
14973.5
14969.2
14964.2
14958.5
14952
14944.6
14936.2
14926.7
14916
14903.9
14890.2
14875
14857.9
14838.8
14817.6
14794
14767.8
14738.9
14707
14671.8
14633.3
14591
14544.8
14494.4
14439.6
14380.1
14315.7
14246.1
14171.1
14090.4
14003.8
13911.2
13812.2
13706.8
13594.7
13475.9
13350.1
13217.3
13077.4
12930.4
12776.3
12615.1
12446.9
12271.7
12089.7
11901
11705.9
11504.7
11297.5
11084.7
10866.6
10643.7
10416.4
10185
9950.17
9712.28
9471.9
9229.57
8985.83
8741.27
8496.45
8251.96
8008.39
7766.32
7526.32
7288.95
7054.78
6824.33
6598.12
6376.65
6160.37
5949.74
5745.15
5546.99
5355.59
5171.27
4994.29
4824.9
4663.28
4509.6
4363.98
4226.51
4097.25
3976.22
3863.39
3758.72