<?xml version="1.0"?>
<VTKFile type="PolyData" version="0.1" byte_order="LittleEndian">
  <PolyData>
    <Piece NumberOfPoints="50000" NumberOfVerts="50000" NumberOfLines="0" NumberOfStrips="0" NumberOfPolys="0">
      <Points>
        <DataArray type="Float32" NumberOfComponents="3" format="ascii">
0.328341 0.00693079 0
-0.311812 0.00239746 0
0.318127 -0.00222685 0
0.332212 -0.00181207 0
-0.271274 0.00518735 0
-0.2279 0.00180701 0
0.109224 -0.0212816 0
-0.280358 2.16438e-05 0
0.0963818 -0.016591 0
-0.0221269 0.007397 0
0.249515 -0.0104034 0
0.316917 0.00630996 0
-0.1827 0.00581561 0
-0.129706 -0.0200448 0
-0.34063 0.00190706 0
0.257254 0.0100013 0
-0.0475783 -0.00173684 0
0.329492 0.00127714 0
0.124895 0.00115084 0
-0.312213 0.00308527 0
-0.32713 0.00457557 0
0.28551 0.0054862 0
-0.322872 0.00213492 0
0.321269 -8.47901e-05 0
0.20462 -0.0104731 0
0.239262 0.0105736 0
-0.320151 -0.00616561 0
0.329946 -0.00286135 0
-0.22919 0.0193381 0
-0.337062 0.00751009 0
-0.253691 0.00995779 0
-0.235812 -0.0135344 0
0.326817 0.000586751 0
0.328955 -0.000931326 0
0.0626172 0.00421237 0
0.334504 -0.0014176 0
0.101531 0.00121402 0
-0.334271 0.00213343 0
-0.312787 -0.00426332 0
-0.347664 -0.0020122 0
0.24118 0.0107708 0
0.254956 0.00502409 0
-0.319296 -0.00187609 0
0.324747 0.000510199 0
0.336476 0.00101519 0
-0.328767 0.00723743 0
0.319993 0.00400202 0
0.164025 -0.0123063 0
0.31589 0.000217208 0
0.323414 8.14899e-05 0
0.135543 0.0176724 0
-0.322335 -0.000786151 0
-0.224078 0.00781183 0
0.31922 0.00234934 0
-0.31733 0.00209844 0
-0.33825 0.00222319 0
0.32873 -0.00109949 0
0.132676 0.00955537 0
0.245798 0.00620611 0
0.33938 -0.00406834 0
0.277091 0.00391255 0
0.332243 0.00214001 0
0.0731941 -0.0263957 0
0.339325 -0.00148569 0
-0.109289 0.0139533 0
-0.316376 0.00129445 0
0.322511 -0.000772633 0
0.331308 -0.000550889 0
0.342683 0.00330339 0
0.23723 0.000802328 0
-0.320092 0.00280684 0
0.322092 0.003064 0
0.176004 0.00102002 0
0.179801 0.00562347 0
0.153343 0.00425762 0
-0.324812 -0.00192346 0
0.281512 0.0102629 0
-0.30835 0.00368778 0
0.248318 0.00566077 0
-0.337514 0.001486 0
-0.170047 -0.0275322 0
-0.330662 0.00375677 0
0.304529 0.00419661 0
-0.321433 0.000687943 0
0.338962 -0.00388233 0
-0.322239 0.00287765 0
0.339538 -0.00380549 0
-0.144973 -0.00686049 0
-0.140253 0.018903 0
-0.32505 -0.00567244 0
0.319207 0.00547555 0
-0.317951 -0.000350529 0
0.320744 -0.00144368 0
-0.21912 0.0161049 0
-0.0330479 -0.0177174 0
-0.286014 0.00445404 0
0.320204 0.00715082 0
-0.327773 0.00282378 0
-0.345765 0.00615963 0
-0.342887 -0.000671326 0
-0.287455 -0.00601044 0
-0.319145 -0.00444317 0
0.341746 -0.000477608 0
-0.1382 -0.0166875 0
0.344164 -0.000369623 0
0.281687 0.010405 0
0.207414 0.00554462 0
0.0165979 0.00652374 0
0.316294 0.00375655 0
-0.323442 -0.00361495 0
-0.24384 0.0161533 0
-0.328117 0.00274964 0
-0.279991 0.00873188 0
239.907 347.038 0
0.215759 0.00607651 0
-0.323364 0.00307578 0
-0.335328 0.00376961 0
6.15947 8.42591 0
-0.325756 0.00151039 0
-0.0165439 -0.0069452 0
0.33007 -0.0010822 0
-0.314249 -0.00292468 0
0.222764 -0.00274588 0
-0.300415 0.00618335 0
0.323958 -0.000480647 0
0.314884 -0.00069052 0
0.103457 0.0195482 0
0.332756 0.00367831 0
-0.291277 -0.00544798 0
0.251155 -0.000646058 0
0.334706 -0.00249664 0
0.332013 -0.000253689 0
-0.34435 0.000771293 0
-0.287259 0.00344163 0
0.34005 -0.00138161 0
0.323212 -0.000752255 0
0.311647 -0.00218691 0
-0.0518489 0.00267477 0
0.260535 -0.0113988 0
0.25349 -0.00956204 0
0.260425 -0.0115851 0
0.309057 0.00792058 0
0.334025 -0.00266924 0
-0.0775373 -0.011219 0
-0.333845 0.00562147 0
0.221745 -0.0181666 0
-0.213775 0.0164055 0
-0.329328 0.00177056 0
-0.235413 -0.0160096 0
-0.33037 0.00314464 0
0.252046 0.0061125 0
0.321049 0.00194307 0
-0.100329 -0.00946455 0
0.261395 -0.0082658 0
0.25993 0.00690283 0
0.318374 0.00326155 0
0.217972 -0.00776874 0
-0.323751 0.00240591 0
-0.139739 -0.00473362 0
0.333084 -0.000221852 0
0.222538 -0.00123914 0
-0.293824 -0.00228743 0
-0.318093 0.00218969 0
-0.330736 0.00224264 0
-0.0855658 0.00823138 0
0.256552 -0.00504314 0
0.289984 -0.00445063 0
0.293709 0.00308809 0
0.245647 0.00653651 0
-0.135952 0.000585035 0
0.343046 -0.00390053 0
-0.317069 0.00266252 0
-0.0752985 -0.00468094 0
0.33158 0.00361918 0
-0.0605697 -0.00269902 0
-0.256019 0.0128892 0
-0.317927 0.00215529 0
-0.193428 -0.00885033 0
-0.322326 -0.00176991 0
-0.323741 -0.00523726 0
0.317871 6.76404e-06 0
-0.327444 0.00534262 0
-0.322466 0.00452642 0
0.328188 0.00443131 0
0.320148 -0.000666604 0
0.247503 -0.0139768 0
0.343778 -0.00270717 0
0.34013 0.000429909 0
0.329828 -0.00292927 0
0.0368308 0.0241178 0
0.335445 -0.00290319 0
0.271626 -0.00733352 0
-0.218519 -0.0148192 0
0.302315 0.00530585 0
-0.299605 0.00529191 0
0.317819 0.00149628 0
-0.266946 0.0096543 0
-0.284483 0.00442431 0
-0.319225 0.00325236 0
0.321836 0.00410456 0
-0.213267 0.0155159 0
0.339236 0.00228542 0
0.294276 -0.00436789 0
-0.0670968 -0.00567051 0
0.343597 -0.00398321 0
-0.31468 -0.00640868 0
0.0446434 0.0389564 0
0.136226 -0.00532411 0
-0.284896 0.00881608 0
-0.200748 -0.00817479 0
0.314705 0.000546671 0
-0.140048 -0.0169699 0
0.296532 -0.00290301 0
-0.275339 0.00907244 0
-0.188752 -0.0127669 0
-0.330665 0.00504715 0
-0.326256 0.00637663 0
0.326196 -0.00016363 0
-0.335334 -0.00104704 0
-0.0394494 0.0171876 0
-0.257963 0.00965082 0
-0.334682 0.0030586 0
-0.310704 -0.0051132 0
0.340737 -0.00233111 0
0.120622 0.0201795 0
-0.318121 0.00257586 0
0.342502 0.000996887 0
0.328628 -0.000609196 0
-0.282717 0.00804841 0
-0.333389 -0.000396618 0
-0.328095 -0.00303694 0
0.319711 0.00354052 0
0.16656 0.0193051 0
-0.0506691 0.0123039 0
-0.33954 0.00370391 0
-0.292311 0.00489526 0
0.251337 -0.0141966 0
-0.257292 -0.00355132 0
-0.324461 0.00280638 0
0.199121 -0.00230855 0
0.336216 3.96354e-05 0
-0.297953 -0.0054518 0
-0.328219 0.0028368 0
-0.189825 -0.011335 0
0.164212 0.00564803 0
0.29358 0.00348008 0
-0.309851 0.00582492 0
0.3289 -0.000607243 0
0.338578 0.00223849 0
0.194154 0.0103017 0
0.202548 0.00364373 0
-0.308592 0.00421214 0
0.317735 -0.00232443 0
-0.146041 -0.00757699 0
-0.298518 0.00671934 0
0.318225 -0.000160327 0
-0.28934 0.00655497 0
0.281616 0.00740101 0
0.122065 0.0191425 0
0.176171 0.000301908 0
0.338433 0.000814734 0
-0.308478 0.00407136 0
0.0618471 -0.00664113 0
0.0309567 -0.0113001 0
-0.220045 0.00287277 0
-0.324049 0.000949559 0
-0.31909 0.00246847 0
-0.316903 -0.00105816 0
0.325997 -0.000768937 0
0.323461 -0.000587512 0
0.333199 -0.000709051 0
-0.326964 -0.00225578 0
0.213784 0.00258132 0
0.0176439 0.0102117 0
-0.341442 0.00418655 0
-0.331983 0.00195105 0
0.316609 -0.000253612 0
-0.317307 0.00253719 0
0.314327 0.00537372 0
-0.321954 -0.00110439 0
-0.312157 -3.25991e-05 0
-0.14448 -0.0185793 0
-0.327062 0.0020899 0
0.309115 -0.00171605 0
-0.277912 0.00881896 0
-0.313068 -0.00253863 0
-0.124217 0.0162726 0
-0.326115 0.00274682 0
-0.331241 0.00318273 0
0.278809 -0.00245059 0
-0.116273 0.00560563 0
0.325537 -0.000700812 0
0.332674 -0.00230439 0
0.212067 0.0113873 0
0.337887 0.00276794 0
0.320835 0.00512183 0
0.336578 0.00350501 0
-0.224068 0.0190503 0
-0.306321 0.00175739 0
-0.340526 0.000841196 0
0.345181 0.000809413 0
-0.046055 0.00608707 0
0.324441 -0.00137346 0
0.316671 0.00274783 0
0.334078 -0.000545275 0
0.0572533 0.0100017 0
-0.171764 0.0204276 0
0.281293 0.00444607 0
-0.0393492 0.000405496 0
-0.159963 0.00768542 0
-0.267805 0.00947741 0
0.325453 0.00548292 0
-0.23709 0.0119081 0
0.301178 -0.00429937 0
0.248216 -0.00379158 0
-0.339447 0.00519661 0
0.264739 -0.0118915 0
0.341658 -0.0041694 0
0.305497 -0.00238784 0
0.326524 0.00609506 0
-0.331165 0.00445921 0
-0.0725819 0.0123185 0
0.333136 0.00175693 0
0.331619 -0.00070358 0
0.152978 0.0202303 0
-0.316034 -0.000275543 0
-0.31 0.00418415 0
0.341378 0.000468777 0
-0.316864 -0.00237214 0
0.3293 0.00209274 0
0.331615 -0.00191862 0
0.158765 -0.0189661 0
0.317631 0.00293064 0
-0.325247 0.00279044 0
-0.27821 -0.000408321 0
-0.186825 -0.00197285 0
0.0263107 -0.00621029 0
0.0395986 -0.0237662 0
-0.298345 0.00283411 0
0.147686 -0.0210698 0
-0.0347167 0.0330309 0
-0.335848 0.00504624 0
-0.23994 0.0111708 0
-0.327841 0.00371829 0
-0.135804 -0.0109488 0
0.331453 0.00566055 0
-0.232981 0.0125368 0
-0.331869 5.82088e-05 0
-52.5689 217.438 0
0.330704 -0.00419912 0
0.329804 -0.000829764 0
-0.270369 0.0116003 0
0.32069 0.0024888 0
0.304212 -0.000744 0
-471.46 -843.132 0
0.101132 0.0119843 0
-0.32846 0.00313075 0
-0.27304 -0.00190742 0
0.327438 0.00295424 0
3.34318 -6.88684 0
0.309912 0.00413994 0
-0.321482 -0.00477962 0
-0.205191 0.000313429 0
-0.326485 -0.00255908 0
-0.332831 0.00558721 0
0.325006 -0.000740915 0
-0.337961 -0.00105397 0
-0.293004 0.00755768 0
0.255012 0.0103019 0
-0.318494 0.000162326 0
-0.265406 0.0116124 0
-0.294479 0.00677957 0
0.328361 0.00351506 0
0.296084 -0.00558255 0
-0.196034 0.0155818 0
0.337618 -0.00160374 0
-0.328631 -0.00447652 0
-0.305612 -0.00284025 0
-0.332169 0.00114616 0
0.0287828 -0.0251969 0
-0.319812 -0.00422785 0
0.32395 0.00354992 0
-0.325897 0.00311045 0
-0.324188 0.0017377 0
-0.0798251 0.0123976 0
0.212076 0.0112336 0
-0.1059 0.0297281 0
0.0698272 0.0168799 0
-0.328875 0.003302 0
-0.0594079 0.00305548 0
-0.329495 -0.000664331 0
-0.331176 0.00458899 0
0.316595 -0.00464595 0
0.278838 0.00776428 0
-0.309787 0.00533662 0
0.29427 0.00406558 0
0.292223 0.00120869 0
-0.315994 0.00261219 0
-0.174386 -0.00563781 0
0.231154 -0.0138994 0
-0.316416 0.000806927 0
0.279967 -0.00713237 0
0.12823 -0.00378842 0
-0.325156 -0.000678682 0
0.304142 -0.000389471 0
0.319942 -0.00178056 0
0.324963 -0.00372802 0
0.331042 -0.00115712 0
0.336639 0.000136306 0
0.31911 0.00571437 0
-0.327327 0.00238299 0
0.235412 0.00798278 0
-0.270367 -0.00396881 0
0.154597 0.0218483 0
-0.308169 0.00235031 0
-0.11003 -0.00441304 0
-0.25552 0.00968867 0
0.093381 -0.0112679 0
-0.334132 0.00331117 0
0.319495 -0.000755976 0
-0.0899608 0.0241627 0
0.114413 0.0127829 0
-0.338621 0.00288432 0
0.321843 0.00164529 0
0.331708 -0.000439151 0
0.316779 0.00713209 0
0.33876 -0.00368126 0
[...]
      <PointData Scalars="T">
        <DataArray type="Float32" Name="T" format="ascii" NumberOfComponents="1">
313.026
409.821
312.687
312.687
409.821
587.452
312.687
653.821
312.687
409.821
312.687
313.026
409.821
422.219
602.818
313.026
422.219
302.533
302.025
409.821
409.821
313.026
409.821
312.687
312.687
313.026
422.219
312.687
409.821
409.821
409.821
422.219
302.715
312.687
313.026
312.687
301.992
409.821
422.219
422.219
313.026
313.026
422.219
303.557
301.122
409.821
313.026
312.687
311.02
312.389
313.026
422.219
409.821
313.026
409.821
409.821
312.687
313.026
313.026
312.687
313.026
313.026
312.687
312.687
409.821
657.934
312.687
312.687
313.026
301.488
409.821
313.026
301.049
313.026
313.026
422.219
313.026
409.821
313.026
600.237
422.219
409.821
313.026
594.364
312.687
409.821
312.687
422.219
409.821
422.219
313.026
422.219
312.687
409.821
422.219
409.821
313.026
409.821
409.821
422.219
422.219
422.219
312.687
422.219
312.687
313.026
313.026
313.026
313.026
422.219
409.821
409.821
409.821
313.026
313.026
409.821
409.821
313.026
610.15
422.219
312.687
422.219
312.687
409.821
312.687
312.687
313.026
313.026
422.219
312.687
312.687
312.687
665.694
409.821
312.687
312.687
312.687
409.821
312.687
312.687
312.687
313.026
312.687
422.219
409.821
312.687
409.821
587.538
422.219
409.821
313.026
313.026
422.219
312.687
313.026
313.026
312.687
409.821
422.219
312.687
312.687
422.219
409.821
409.821
409.821
312.687
312.687
313.026
313.026
605.238
312.687
409.821
422.219
313.026
422.219
409.821
409.821
422.219
422.219
422.219
312.687
409.821
409.821
313.026
312.687
312.687
312.687
305.328
312.687
313.026
312.687
312.687
422.219
313.026
409.821
304.858
409.821
409.821
409.821
313.026
409.821
313.026
312.687
422.219
312.687
422.219
313.026
312.687
409.821
422.219
303.266
422.219
312.687
409.821
422.219
409.821
409.821
312.687
422.219
409.821
409.821
409.821
422.219
312.687
313.026
409.821
301.106
312.687
409.821
422.219
422.219
313.026
313.026
409.821
409.821
409.821
312.687
422.219
409.821
312.687
314.292
422.219
409.821
422.219
313.026
313.026
409.821
312.687
313.026
313.026
313.026
409.821
312.687
422.219
409.821
312.687
409.821
313.026
313.026
307.288
301.357
409.821
312.687
312.687
409.821
623.203
409.821
422.219
312.687
312.687
312.687
422.219
313.026
313.026
409.821
409.821
312.687
409.821
313.026
422.219
422.219
422.219
409.821
312.687
409.821
422.219
409.821
409.821
409.821
312.687
409.821
312.687
312.687
313.026
313.026
313.026
313.026
409.821
588.301
621.59
301.488
409.821
312.687
313.026
312.687
313.026
409.821
313.026
581.496
409.821
409.821
313.026
409.821
312.687
312.687
409.821
312.687
312.687
312.687
313.026
409.821
409.821
311.779
312.687
313.026
422.219
409.821
304.36
422.219
313.026
312.687
312.687
313.026
409.821
422.219
422.219
312.687
312.687
409.821
312.687
409.821
409.821
409.821
409.821
422.219
313.026
409.821
658.502
409.821
312.687
312.687
409.821
313.026
312.687
422.219
313.026
409.821
422.219
313.026
312.687
313.026
422.219
594.629
422.219
409.821
312.687
422.219
409.821
313.026
621.206
409.821
409.821
313.026
312.687
409.821
312.687
422.219
422.219
652.308
312.687
422.219
313.026
409.821
587.055
409.821
313.026
409.821
313.026
409.821
409.821
422.219
409.821
312.687
313.026
409.821
313.026
302.041
409.821
422.219
312.687
616.135
312.687
312.687
422.219
312.687
312.687
312.687
312.687
310.945
313.026
409.821
313.026
422.219
313.026
409.821
422.219
409.821
312.687
409.821
312.687
409.821
313.026
409.821
308.389
312.687
313.026
312.687
409.821
409.821
312.687
409.821
313.026
409.821
313.026
639.041
422.219
409.821
409.821
313.026
302.317
409.821
312.687
577.608
422.219
422.219
409.821
422.219
313.026
312.687
422.219
313.026
422.219
422.219
312.687
312.687
422.219
409.821
597.83
422.219
302.033
422.219
306.249
409.821
422.219
312.687
313.026
422.219
422.219
409.821
409.821
313.026
593.582
312.687
312.687
313.026
409.821
409.821
409.821
312.687
313.026
607.824
422.219
422.219
409.821
302.088
313.026
312.687
301.081
409.821
313.026
313.026
301.059
409.821
313.026
312.687
422.219
312.687
409.821
409.821
409.821
422.219
422.219
422.219
422.219
422.219
312.687
312.687
312.687
313.026
312.687
313.026
313.026
422.219
313.026
409.821
312.687
313.026
409.821
313.026
409.821
604.398
409.821
598.89
313.026
312.687
313.026
312.687
312.687
312.687
409.821
313.026
313.026
575.012
313.026
585.771
409.821
422.219
312.687
312.687
409.821
409.821
422.219
422.219
422.219
313.026
313.026
310.355
313.026
422.219
409.821
313.026
409.821
303.079
313.026
422.219
409.821
312.687
409.821
313.026
313.026
422.219
313.026
422.219
312.687
643.279
409.821
301.941
312.687
422.219
422.219
615.084
409.821
409.821
313.026
312.687
312.687
301.67
313.026
422.219
598.755
422.219
422.219
409.821
313.026
312.687
409.821
313.026
422.219
301.059
313.026
306.952
409.821
313.026
422.219
654.375
313.026
312.687
422.219
313.026
409.821
312.687
312.687
313.026
312.687
422.219
422.219
409.821
708.554
313.026
422.219
312.687
422.219
422.219
313.026
312.687
422.219
422.219
409.821
409.821
312.687
312.687
409.821
422.219
422.219
313.026
312.687
409.821
409.821
312.687
312.687
313.026
313.026
409.821
422.219
422.219
422.219
422.219
313.026
409.821
313.026
313.026
422.219
409.821
312.687
312.687
422.219
409.821
312.687
422.219
422.219
409.821
312.687
422.219
409.821
313.026
409.821
409.821
312.687
313.026
409.821
313.026
312.687
588.234
313.026
312.687
409.821
409.821
312.687
312.687
312.687
313.026
313.026
422.219
422.219
409.821
409.821
313.026
409.821
422.219
302.402
313.026
409.821
409.821
409.821
312.687
313.026
313.026
313.026
409.821
312.687
312.687
634.827
409.821
313.026
312.687
313.026
313.026
313.026
409.821
313.026
313.026
312.687
409.821
313.026
409.821
312.687
313.026
312.687
313.026
312.687
409.821
310.355
630.79
313.026
409.821
409.821
409.821
312.687
422.219
313.026
409.821
312.687
313.026
422.219
312.687
616.135
422.219
658.431
409.821
409.821
409.821
312.687
312.687
312.687
312.687
312.687
593.19
313.026
409.821
422.219
312.687
312.687
409.821
302.033
409.821
313.026
409.821
409.821
409.821
422.219
422.219
302.402
409.821
313.026
409.821
422.219
409.821
422.219
422.219
312.687
313.026
312.687
409.821
422.219
409.821
588.301
422.219
409.821
422.219
313.026
409.821
422.219
312.687
312.687
312.687
409.821
409.821
422.219
313.026
422.219
302.088
409.821
422.219
422.219
313.026
312.687
313.026
304.495
312.687
409.821
409.821
312.687
409.821
313.026
409.821
313.026
409.821
422.219
313.026
409.821
303.805
409.821
409.821
312.687
301.941
422.219
313.026
312.687
302.94
313.026
409.821
422.219
422.219
313.026
409.821
304.186
313.026
312.687
312.687
422.219
409.821
305.404
409.821
409.821
312.687
312.687
313.026
312.687
409.821
422.219
313.026
409.821
313.026
313.026
409.821
409.821
313.026
657.131
312.687
312.687
409.821
409.821
312.687
302.36
409.821
422.219
422.219
313.026
303.474
598.755
409.821
409.821
597.61
422.219
312.687
409.821
312.687
409.821
312.687
312.687
602.741
312.687
409.821
313.026
312.687
409.821
422.219
313.026
312.687
313.026
313.026
313.026
313.026
409.821
313.026
312.687
422.219
312.687
313.026
409.821
312.687
312.687
313.026
409.821
409.821
422.219
312.687
422.219
312.687
422.219
409.821
409.821
313.026
422.219
648.035
422.219
312.687
638.929
409.821
312.687
313.026
422.219
422.219
312.687
409.821
312.687
312.687
422.219
313.026
422.219
313.026
312.687
313.026
312.687
313.026
313.026
409.821
313.026
312.687
312.687
409.821
312.687
422.219
409.821
422.219
312.687
313.026
409.821
422.219
409.821
312.687
409.821
409.821
314.873
312.687
313.026
313.026
409.821
409.821
312.687
409.821
313.026
409.821
422.219
304.011
422.219
312.687
409.821
422.219
409.821
409.821
409.821
600.391
422.219
409.821
409.821
313.026
617.833
312.687
312.687
312.687
312.687
313.026
409.821
312.687
409.821
313.026
409.821
313.026
313.916
422.219
313.026
409.821
312.687
313.026
312.687
422.219
312.687
409.821
301.992
422.219
422.219
313.026
422.219
409.821
409.821
422.219
312.687
313.026
313.026
313.026
422.219
312.687
422.219
312.687
305.123
313.026
313.026
313.026
312.687
312.687
422.219
313.026
313.026
422.219
409.821
312.687
409.821
301.006
409.821
422.219
409.821
593.582
422.219
409.821
313.026
422.219
313.026
602.818
312.687
409.821
313.026
409.821
409.821
313.026
313.026
409.821
312.687
313.026
313.16
303.079
422.219
409.821
422.219
672.871
312.687
409.821
307.963
409.821
409.821
312.687
312.687
409.821
313.026
312.687
312.389
312.687
409.821
312.687
313.026
409.821
409.821
409.821
422.219
409.821
312.687
409.821
312.687
422.219
308.124
312.687
313.026
409.821
422.219
422.219
409.821
312.687
313.026
422.219
312.687
301.732
422.219
422.219
312.687
409.821
302.494
312.687
313.026
422.219
409.821
409.821
409.821
313.026
651.572
313.026
594.92
409.821
312.687
313.026
313.026
312.687
313.026
422.219
631.09
422.219
409.821
312.687
313.026
313.026
313.026
313.026
313.026
422.219
409.821
409.821
409.821
422.219
409.821
409.821
308.549
312.687
312.687
312.687
312.687
409.821
312.687
409.821
302.715
422.219
409.821
313.026
409.821
643.279
312.687
660.766
312.687
312.687
312.687
312.687
313.026
313.026
312.687
313.026
422.219
301.151
587.538
313.026
313.026
314.827
422.219
312.687
422.219
313.026
313.026
313.026
313.026
409.821
312.687
409.821
313.026
314.827
312.687
646.772
646.692
665.694
312.687
312.687
422.219
313.026
409.821
313.026
312.687
422.219
409.821
588.872
312.687
313.026
409.821
312.687
409.821
313.026
409.821
409.821
575.495
409.821
312.687
312.687
422.219
409.821
409.821
409.821
312.687
422.219
313.026
409.821
313.026
313.026
409.821
409.821
313.026
409.821
312.687
312.687
312.687
409.821
303.364
312.687
422.219
409.821
312.687
409.821
312.687
409.821
409.821
312.687
422.219
422.219
312.687
312.687
313.026
312.687
313.026
422.219
313.026
313.026
409.821
409.821
312.687
409.821
313.026
301.122
598.174
409.821
313.026
646.772
588.155
301.63
312.687
653.548
599.36
312.687
409.821
617.833
422.219
422.219
409.821
312.687
312.687
409.821
409.821
312.687
422.219
312.687
313.026
313.026
409.821
409.821
312.687
588.155
313.026
409.821
313.026
312.687
588.612
312.687
312.687
422.219
409.821
422.219
422.219
409.821
409.821
409.821
409.821
313.026
312.687
312.687
409.821
312.687
409.821
409.821
312.687
409.821
409.821
313.026
409.821
422.219
312.687
422.219
422.219
313.026
409.821
313.026
313.026
312.687
312.687
409.821
313.026
303.474
409.821
409.821
313.026
409.821
409.821
306.458
312.687
312.687
422.219
312.687
409.821
304.373
312.687
634.346
409.821
409.821
312.687
312.687
409.821
409.821
409.821
422.219
313.026
422.219
312.687
422.219
422.219
312.695
313.026
312.687
422.219
313.026
312.687
313.026
606.244
312.687
627.898
422.219
409.821
409.821
594.471
422.219
422.219
313.026
313.026
422.219
409.821
409.821
312.687
409.821
409.821
409.821
422.219
422.219
312.687
312.687
313.026
409.821
313.026
313.026
312.687
422.219
312.687
307.561
313.026
302.134
313.026
409.821
630.682
646.156
409.821
409.821
312.687
422.219
422.219
313.026
409.821
422.219
409.821
593.843
409.821
409.821
658.431
312.687
422.219
422.219
409.821
422.219
409.821
312.687
422.219
409.821
312.687
312.687
312.687
422.219
422.219
409.821
313.026
409.821
422.219
305.596
409.821
409.821
409.821
313.026
409.821
313.026
313.026
312.687
422.219
312.687
303.612
422.219
636.935
312.687
313.026
422.219
409.821
409.821
312.687
409.821
422.219
409.821
313.026
313.026
312.687
313.026
422.219
409.821
409.821
312.687
313.026
409.821
313.026
313.026
422.219
422.219
422.219
313.026
313.026
313.026
409.821
313.026
633.374
313.026
409.821
409.821
587.055
313.026
312.687
312.687
312.687
422.219
312.687
312.687
605.506
409.821
313.026
313.026
311.057
409.821
312.687
409.821
312.687
313.026
312.687
301.925
422.219
409.821
422.219
313.026
312.687
312.687
312.687
409.821
313.026
409.821
313.026
312.687
313.026
422.219
309.607
409.821
313.026
313.026
312.687
422.219
312.687
312.687
312.687
312.687
313.026
631.09
313.026
312.687
409.821
422.219
422.219
583.488
409.821
409.821
587.034
409.821
312.687
312.687
422.219
313.026
409.821
409.821
409.821
312.687
422.219
422.219
313.026
312.687
313.026
313.026
313.026
587.055
313.026
313.026
312.687
313.026
409.821
303.859
617.455
422.219
422.219
312.687
422.219
409.821
409.821
409.821
409.821
409.821
644.125
409.821
313.026
313.026
312.687
409.821
312.687
409.821
312.687
313.026
409.821
301.449
310.911
313.026
313.026
312.687
597.83
312.687
301.772
409.821
313.026
593.932
313.026
409.821
312.687
312.687
409.821
409.821
422.219
409.821
422.219
409.821
312.687
312.687
312.687
422.219
313.026
409.821
312.687
422.219
313.026
409.821
409.821
422.219
409.821
312.687
312.687
422.219
312.687
313.026
422.219
409.821
314.292
313.026
409.821
313.026
313.026
312.687
312.687
312.687
422.219
409.821
422.219
422.219
313.026
312.687
313.026
301.998
312.687
409.821
641.463
422.219
312.687
301.667
312.687
312.687
409.821
312.687
313.026
313.026
313.026
312.687
313.026
409.821
409.821
409.821
313.026
409.821
409.821
312.687
301.332
312.687
300.952
409.821
313.026
409.821
313.026
313.026
409.821
312.687
422.219
422.219
422.219
312.687
422.219
422.219
599.36
422.219
422.219
409.821
422.219
422.219
606.244
312.687
409.821
409.821
313.026
313.026
312.687
312.687
313.026
409.821
409.821
313.026
422.219
422.219
313.026
409.821
422.219
311.082
313.026
312.687
409.821
409.821
312.687
409.821
409.821
312.687
422.219
301.941
311.079
312.687
312.687
409.821
409.821
409.821
312.687
409.821
409.821
409.821
409.821
422.219
409.821
313.026
422.219
409.821
409.821
313.026
409.821
312.687
409.821
598.572
313.026
409.821
422.219
312.687
312.687
422.219
422.219
639.041
312.687
594.836
409.821
594.836
422.219
409.821
422.219
422.219
313.026
312.687
422.219
409.821
312.687
313.026
312.687
422.219
312.687
312.687
313.026
313.026
409.821
422.219
409.821
409.821
313.916
409.821
313.026
409.821
422.219
422.219
312.687
300.932
422.219
409.821
312.687
605.238
313.026
312.687
313.026
312.687
312.687
313.026
409.821
422.219
422.219
409.821
312.687
312.687
422.219
311.654
598.755
409.821
409.821
422.219
409.821
313.026
312.687
409.821
422.219
313.026
313.026
409.821
312.687
409.821
312.687
312.687
312.687
409.821
313.026
312.687
312.687
313.026
422.219
300.975
422.219
422.219
312.687
312.687
422.219
409.821
313.026
312.687
312.687
422.219
422.219
409.821
313.026
313.026
422.219
313.026
312.687
631.09
312.687
313.026
409.821
422.219
658.431
409.821
409.821
604.309
409.821
409.821
313.026
422.219
301.332
422.219
422.219
313.026
588.301
409.821
409.821
422.219
312.687
409.821
422.219
313.026
409.821
598.89
409.821
313.026
312.687
313.026
312.687
422.219
422.219
409.821
422.219
409.821
409.821
422.219
409.821
409.821
312.687
313.026
313.026
305.489
302.715
422.219
422.219
313.026
313.026
422.219
422.219
409.821
312.687
587.493
409.821
409.821
312.687
409.821
312.687
313.026
302.226
312.687
409.821
313.026
409.821
409.821
422.219
313.026
409.821
313.026
302.317
313.404
312.687
409.821
422.219
308.188
312.687
301.998
313.026
313.026
312.687
422.219
312.687
312.687
409.821
646.047
409.821
312.687
312.687
312.687
409.821
587.055
409.821
313.026
409.821
313.026
577.608
308.192
312.687
312.687
312.687
409.821
313.026
422.219
307.12
312.687
313.026
409.821
422.219
422.219
409.821
422.219
422.219
309.619
409.821
422.219
312.687
312.687
313.026
409.821
409.821
422.219
422.219
313.026
409.821
422.219
422.219
313.026
409.821
636.935
312.687
409.821
313.026
422.219
312.687
409.821
422.219
313.026
409.821
312.687
422.219
409.821
312.687
313.026
422.219
409.821
409.821
312.687
409.821
422.219
312.687
653.821
313.026
313.026
646.156
313.026
312.687
312.687
312.687
304.011
422.219
312.687
313.026
632.592
313.026
409.821
422.219
422.219
409.821
422.219
312.687
422.219
313.026
313.026
313.026
312.687
313.026
312.687
312.687
313.026
422.219
313.026
313.026
422.219
312.687
312.687
313.026
301.332
422.219
312.687
312.687
422.219
313.026
422.219
422.219
312.687
409.821
409.821
312.687
409.821
313.026
304.011
313.026
312.687
312.687
312.687
312.687
312.687
301.924
409.821
422.219
655.789
313.026
307.963
409.821
312.687
312.687
422.219
312.687
313.026
312.687
312.687
312.687
409.821
313.026
312.687
409.821
312.687
422.219
313.026
312.687
313.026
409.821
422.219
313.026
409.821
409.821
312.687
312.687
312.687
409.821
313.026
301.179
634.41
409.821
312.687
312.687
313.026
422.219
422.219
422.219
312.687
313.026
312.687
422.219
409.821
312.687
307.564
313.026
313.026
312.687
409.821
313.026
422.219
313.026
409.821
409.821
313.026
313.026
409.821
577.608
313.026
422.219
634.346
601.137
629.555
409.821
409.821
422.219
312.687
312.687
422.219
313.026
422.219
313.026
312.687
422.219
312.687
312.687
409.821
312.687
589.447
577.02
409.821
409.821
313.026
313.026
312.687
422.219
312.687
422.219
312.687
312.687
409.821
422.219
409.821
306.458
303.478
313.026
312.095
422.219
312.687
409.821
312.687
409.821
312.687
409.821
409.821
313.026
312.687
422.219
312.687
409.821
313.026
409.821
422.219
422.219
422.219
312.687
409.821
422.219
575.495
422.219
422.219
312.687
409.821
312.687
312.687
313.026
312.687
313.026
312.687
409.821
422.219
575.012
313.026
313.026
409.821
312.687
312.687
312.687
312.687
409.821
409.821
313.026
313.026
312.687
312.687
630.231
301.122
422.219
409.821
409.821
312.687
409.821
301.732
422.219
312.687
409.821
422.219
313.026
409.821
313.026
312.687
313.026
644.349
422.219
309.226
312.687
312.687
312.687
313.026
422.219
313.026
312.095
409.821
312.687
313.026
312.687
422.219
313.026
313.026
422.219
587.538
575.495
309.607
312.687
409.821
409.821
670.79
422.219
312.687
312.687
409.821
422.219
312.687
422.219
409.821
409.821
312.687
313.026
422.219
644.125
422.219
312.687
422.219
422.219
313.026
313.026
313.026
313.026
409.821
422.219
422.219
422.219
313.026
312.687
313.026
312.687
409.821
409.821
409.821
409.821
422.219
409.821
409.821
304.36
313.026
312.687
312.687
422.219
422.219
409.821
409.821
409.821
312.687
594.836
313.026
313.026
312.687
422.219
422.219
312.687
313.026
312.687
422.219
313.026
409.821
409.821
312.687
312.687
312.687
312.687
313.026
313.026
313.026
313.026
312.687
312.687
599.36
312.687
409.821
313.026
409.821
409.821
587.055
312.687
312.687
651.546
313.026
409.821
422.219
409.821
422.219
312.687
409.821
603.314
312.687
301.239
422.219
409.821
409.821
605.152
312.687
312.687
312.687
422.219
301.575
306.697
312.687
647.78
646.758
312.687
317.048
313.026
313.026
312.687
313.026
422.219
312.687
300.952
313.026
409.821
409.821
409.821
409.821
409.821
312.687
646.758
637.197
409.821
409.821
409.821
312.468
310.911
312.687
409.821
312.687
312.687
312.687
312.687
313.026
409.821
409.821
422.219
312.687
409.821
312.687
422.219
312.687
597.61
588.872
409.821
313.026
422.219
422.219
313.026
422.219
304.858
409.821
310.911
313.026
313.026
646.047
313.026
409.821
422.219
312.687
409.821
312.687
312.687
313.026
313.026
313.026
409.821
313.026
630.682
422.219
302.089
422.219
422.219
615.084
312.687
409.821
595.395
409.821
312.687
422.219
409.821
313.026
312.687
312.687
422.219
409.821
301.003
409.821
409.821
313.026
422.219
409.821
422.219
409.821
422.219
409.821
409.821
304.186
313.026
409.821
422.219
312.687
312.687
422.219
409.821
313.026
307.564
313.026
409.821
409.821
312.687
422.219
409.821
422.219
302.483
312.687
312.687
313.164
313.026
313.026
313.026
312.687
409.821
422.219
601.137
597.83
422.219
409.821
313.026
409.821
313.026
308.188
409.821
312.687
313.026
422.219
422.219
303.478
409.821
409.821
313.026
409.821
409.821
409.821
409.821
422.219
409.821
422.219
409.821
409.821
313.026
422.219
422.219
409.821
422.219
313.026
306.42
313.026
313.026
409.821
422.219
312.687
409.821
409.821
422.219
312.687
312.687
409.821
422.219
313.026
312.687
422.219
409.821
422.219
422.219
409.821
312.687
409.821
422.219
313.026
313.026
409.821
422.219
312.687
312.687
409.821
422.219
409.821
409.821
646.879
312.687
313.026
313.026
313.026
313.026
409.821
312.687
312.687
313.026
409.821
422.219
409.821
422.219
313.026
312.687