<?xml version="1.0"?>
<VTKFile type="PolyData" version="0.1" byte_order="LittleEndian">
  <PolyData>
    <Piece NumberOfPoints="50000" NumberOfVerts="50000" NumberOfLines="0" NumberOfStrips="0" NumberOfPolys="0">
      <Points>
        <DataArray type="Float32" NumberOfComponents="3" format="ascii">
0.319215 0.00676671 0
-0.303086 0.00235588 0
0.309272 -0.0021368 0
0.32297 -0.00173306 0
-0.26367 0.00506839 0
-0.221504 0.0017827 0
0.106188 -0.0206573 0
-0.272516 4.57996e-05 0
0.09371 -0.0160992 0
-0.0214752 0.00721533 0
0.242564 -0.0100851 0
0.308111 0.00616354 0
-0.177569 0.00567936 0
-0.12604 -0.019456 0
-0.331095 0.0018791 0
0.250083 0.00974918 0
-0.0462194 -0.0016616 0
0.32032 0.00126974 0
0.121431 0.00114585 0
-0.303472 0.0030247 0
-0.317978 0.00447291 0
0.277555 0.00536043 0
-0.313831 0.0021009 0
0.312336 -5.38419e-05 0
0.198926 -0.010153 0
0.232593 0.0103054 0
-0.311172 -0.00596723 0
0.320771 -0.00275283 0
-0.222745 0.018823 0
-0.327631 0.00732537 0
-0.246574 0.00970571 0
-0.229182 -0.0131292 0
0.317732 0.000599217 0
0.319801 -0.000877232 0
0.0608918 0.00412151 0
0.325199 -0.00134957 0
0.0987196 0.00120718 0
-0.324925 0.00209858 0
-0.304016 -0.00411834 0
-0.337922 -0.00193035 0
0.234456 0.0104971 0
0.247855 0.00491114 0
-0.310367 -0.00179909 0
0.315719 0.000524786 0
0.327109 0.00101512 0
-0.319567 0.00706032 0
0.311101 0.00391956 0
0.159463 -0.0119347 0
0.307106 0.000239536 0
0.314421 0.000107812 0
0.13177 0.0172046 0
-0.313321 -0.000739497 0
-0.21779 0.00761969 0
0.310347 0.0023126 0
-0.308451 0.00206498 0
-0.328781 0.00218635 0
0.319591 -0.00104003 0
0.128988 0.0093151 0
0.238954 0.00606017 0
0.329942 -0.00392602 0
0.269374 0.00383082 0
0.323008 0.00210953 0
0.0711684 -0.0256279 0
0.329883 -0.00141586 0
-0.106204 0.0135893 0
-0.307527 0.00128324 0
0.313539 -0.000722811 0
0.322083 -0.000507573 0
0.333137 0.00323917 0
0.230629 0.00080747 0
-0.311131 0.00275398 0
0.313138 0.00300733 0
0.171132 0.001021 0
0.174797 0.00549412 0
0.149083 0.00416584 0
-0.31573 -0.00184516 0
0.273661 0.0100033 0
-0.299716 0.00361051 0
0.241402 0.00552992 0
-0.328065 0.00146996 0
-0.165246 -0.0267327 0
-0.321409 0.00367708 0
0.296067 0.00410852 0
-0.312444 0.000693581 0
0.329535 -0.00374524 0
-0.313218 0.00282285 0
0.330092 -0.00367072 0
-0.140889 -0.00664204 0
-0.136298 0.0184 0
-0.315962 -0.00548992 0
0.310337 0.00535203 0
-0.30906 -0.000315983 0
0.311816 -0.00137538 0
-0.212961 0.0156807 0
-0.0320906 -0.0171926 0
-0.278002 0.0043555 0
0.311306 0.00698076 0
-0.318599 0.00277036 0
-0.33609 0.00601269 0
-0.333282 -0.000626958 0
-0.27939 -0.00581658 0
-0.310222 -0.00429481 0
0.332233 -0.000435911 0
-0.134298 -0.0161933 0
0.334584 -0.000331073 0
0.273832 0.0101415 0
0.201667 0.00541954 0
0.0161535 0.00636669 0
0.307482 0.0036793 0
-0.314401 -0.0034898 0
-0.236989 0.0157277 0
-0.318936 0.00269816 0
-0.27214 0.00851392 0
232.88 336.873 0
0.209754 0.00593454 0
-0.314313 0.00301544 0
-0.325944 0.0036895 0
5.97844 8.17825 0
-0.316647 0.00149301 0
-0.0160486 -0.0067219 0
0.320892 -0.00102336 0
-0.305465 -0.00281896 0
0.216575 -0.00264049 0
-0.291998 0.00603656 0
0.314943 -0.000439134 0
0.306126 -0.000643003 0
0.100582 0.0190273 0
0.323486 0.00360347 0
-0.283105 -0.00526987 0
0.244164 -0.000600457 0
0.325394 -0.00239846 0
0.322772 -0.000218432 0
-0.334708 0.000775214 0
-0.279211 0.0033713 0
0.330593 -0.00131435 0
0.314225 -0.000702667 0
0.302973 -0.00209799 0
-0.0503692 0.00262654 0
0.253274 -0.0110525 0
0.24643 -0.00926727 0
0.253167 -0.0112337 0
0.300441 0.00772683 0
0.324736 -0.00256612 0
-0.0753377 -0.0108781 0
-0.324503 0.00548956 0
0.215561 -0.0176304 0
-0.207765 0.0159728 0
-0.32011 0.00174646 0
-0.228789 -0.0155345 0
-0.321124 0.00308205 0
0.245026 0.00596917 0
0.312123 0.00191755 0
-0.0974925 -0.00917299 0
0.254116 -0.00800732 0
0.25269 0.00673749 0
0.309527 0.00319972 0
0.211907 -0.00752414 0
-0.314695 0.00236382 0
-0.135804 -0.00457473 0
0.323822 -0.000187008 0
0.21635 -0.00117695 0
-0.285607 -0.00219908 0
-0.309195 0.00215365 0
-0.321486 0.00220499 0
-0.0831454 0.00802766 0
0.249411 -0.00487461 0
0.281912 -0.00429863 0
0.285528 0.00302941 0
0.238832 0.00638372 0
-0.132123 0.000595161 0
0.333503 -0.00376308 0
-0.308197 0.00261345 0
-0.0731655 -0.0045234 0
0.322365 0.00354752 0
-0.0588452 -0.00259666 0
-0.248831 0.0125551 0
-0.309032 0.00212032 0
-0.187985 -0.0085765 0
-0.313312 -0.00169585 0
-0.31469 -0.00506683 0
0.309031 3.49444e-05 0
-0.318286 0.00521836 0
-0.313447 0.00442506 0
0.319066 0.00433674 0
0.311242 -0.000619765 0
0.240604 -0.0135584 0
0.334214 -0.00260307 0
0.330661 0.000446234 0
0.320655 -0.00281897 0
0.0358197 0.0234661 0
0.326114 -0.00279365 0
0.264062 -0.00710107 0
-0.212369 -0.0143776 0
0.293893 0.00518542 0
-0.291211 0.00516998 0
0.308983 0.00148317 0
-0.259458 0.0094106 0
-0.276514 0.00432661 0
-0.310287 0.00318714 0
0.312892 0.00401926 0
-0.207273 0.0151081 0
0.329789 0.00224972 0
0.286084 -0.00421818 0
-0.0651921 -0.00548509 0
0.334037 -0.00384346 0
-0.305883 -0.00620582 0
0.0434061 0.0378818 0
0.132446 -0.00514803 0
-0.276908 0.00859581 0
-0.195103 -0.0079197 0
0.305955 0.000559966 0
-0.136094 -0.0164678 0
0.288278 -0.00279417 0
-0.267618 0.00884504 0
-0.183439 -0.0123831 0
-0.321415 0.00493129 0
-0.317129 0.00622359 0
0.317126 -0.000130453 0
-0.325939 -0.000992133 0
-0.038318 0.0167326 0
-0.250726 0.00940723 0
-0.325313 0.00299831 0
-0.30199 -0.00494421 0
0.331257 -0.00223757 0
0.117263 0.0196407 0
-0.309221 0.00252908 0
0.332965 0.000997117 0
0.31949 -0.00056357 0
-0.274791 0.00784958 0
-0.324068 -0.000361058 0
-0.318924 -0.00292799 0
0.310827 0.00347085 0
0.161918 0.0187914 0
-0.0492243 0.0119859 0
-0.330041 0.00362561 0
-0.284122 0.00478441 0
0.24433 -0.013772 0
-0.250073 -0.00342638 0
-0.315378 0.00275352 0
0.193586 -0.00221655 0
0.326856 6.66189e-05 0
-0.289623 -0.00527578 0
-0.319037 0.00278267 0
-0.184481 -0.0109914 0
0.159647 0.00551739 0
0.285402 0.00341045 0
-0.301168 0.00568808 0
0.319753 -0.000561747 0
0.329147 0.00220392 0
0.188748 0.0100408 0
0.196912 0.00356918 0
-0.299949 0.00412028 0
0.30889 -0.00223165 0
-0.141926 -0.00733835 0
-0.290153 0.00655759 0
0.309371 -0.000127672 0
-0.281232 0.00639784 0
0.273765 0.00722149 0
0.118668 0.0186332 0
0.17128 0.000321955 0
0.329011 0.000820311 0
-0.299839 0.00398343 0
0.0601419 -0.00642803 0
0.0301163 -0.0109564 0
-0.213871 0.00281863 0
-0.314988 0.000947829 0
-0.310159 0.00242498 0
-0.308043 -0.00100418 0
0.316931 -0.000718943 0
0.314458 -0.000543031 0
0.323927 -0.00066104 0
-0.317824 -0.00216863 0
0.207837 0.00253659 0
0.0171644 0.00994635 0
-0.331888 0.0040948 0
-0.322691 0.00192191 0
0.307803 -0.000218178 0
-0.308425 0.00249182 0
0.305568 0.00525135 0
-0.31295 -0.00104883 0
-0.303412 -6.28713e-06 0
-0.140403 -0.0180321 0
-0.317912 0.00205665 0
0.300513 -0.00164023 0
-0.270119 0.00859863 0
-0.304293 -0.00244194 0
-0.120714 0.0158436 0
-0.316995 0.00269492 0
-0.321971 0.00311908 0
0.271053 -0.0023544 0
-0.112998 0.00547539 0
0.316483 -0.00065284 0
0.32342 -0.00221158 0
0.20616 0.0110962 0
0.328477 0.00271876 0
0.311919 0.005008 0
0.327202 0.00343519 0
-0.217766 0.0185434 0
-0.297751 0.00173336 0
-0.33099 0.00084327 0
0.335571 0.00081502 0
-0.0447392 0.00594361 0
0.315414 -0.00130672 0
0.307868 0.0027 0
0.32478 -0.000501775 0
0.0556762 0.00974868 0
-0.166926 0.0198818 0
0.273458 0.00434944 0
-0.0382208 0.000420689 0
-0.155465 0.00749694 0
-0.260294 0.0092387 0
0.31641 0.0053595 0
-0.230433 0.0116015 0
0.292792 -0.00415157 0
0.24131 -0.00365803 0
-0.329951 0.00507661 0
0.25736 -0.0115315 0
0.332152 -0.00402444 0
0.296995 -0.00229332 0
0.317449 0.00595419 0
-0.321899 0.00435983 0
-0.0705245 0.0120004 0
0.323858 0.00173583 0
0.32239 -0.000655588 0
0.148717 0.0196908 0
-0.307197 -0.000243218 0
-0.301318 0.00409307 0
0.331874 0.000483993 0
-0.307983 -0.00228005 0
0.320146 0.00206331 0
0.32239 -0.0018366 0
0.154344 -0.0184074 0
0.308784 0.00287661 0
-0.316144 0.00273775 0
-0.270409 -0.000370866 0
-0.181577 -0.00189144 0
0.0255995 -0.0060089 0
0.0385116 -0.0230696 0
-0.289993 0.00278058 0
0.143574 -0.020452 0
-0.033713 0.0321269 0
-0.326455 0.0049303 0
-0.233206 0.0108848 0
-0.318667 0.00363965 0
-0.131975 -0.0106157 0
0.32224 0.00553182 0
-0.226438 0.0122125 0
-0.32259 8.11246e-05 0
-50.964 210.8 0
0.321508 -0.0040531 0
0.320626 -0.000778211 0
-0.262782 0.0113022 0
0.311776 0.00244819 0
0.29575 -0.000695229 0
-457.317 -817.839 0
0.0983258 0.0116758 0
-0.319274 0.00306821 0
-0.265382 -0.00182803 0
0.318319 0.00289989 0
3.24458 -6.68363 0
0.301278 0.00405197 0
-0.312496 -0.00462231 0
-0.19943 0.00033089 0
-0.317359 -0.00246344 0
-0.323522 0.00545616 0
0.315959 -0.000692205 0
-0.328493 -0.000998963 0
-0.284791 0.00737251 0
0.247904 0.0100414 0
-0.309574 0.000183191 0
-0.257958 0.011314 0
-0.286226 0.00661616 0
0.319214 0.00344479 0
0.287839 -0.00539896 0
-0.190521 0.0151721 0
0.328223 -0.00153058 0
-0.319444 -0.00432727 0
-0.297043 -0.00273486 0
-0.32288 0.001139 0
0.0280002 -0.0244598 0
-0.310872 -0.00408562 0
0.314945 0.00347973 0
-0.316771 0.00304917 0
-0.315121 0.00171405 0
-0.0775643 0.0120771 0
0.206168 0.0109467 0
-0.102902 0.0289207 0
0.0678952 0.0164339 0
-0.319675 0.00323488 0
-0.0577187 0.00299677 0
-0.320282 -0.000621127 0
-0.321912 0.00448592 0
0.307787 -0.00448757 0
0.271065 0.00757464 0
-0.301108 0.0052134 0
0.286094 0.00398116 0
0.284087 0.00120262 0
-0.307149 0.00256476 0
-0.169482 -0.00545377 0
0.224712 -0.0134832 0
-0.307569 0.000809049 0
0.27217 -0.0069055 0
0.124675 -0.00365529 0
-0.316047 -0.000634261 0
0.295674 -0.000350782 0
0.311034 -0.00170297 0
0.315927 -0.00359529 0
0.321833 -0.00109646 0
0.327268 0.000160833 0
0.310242 0.00558421 0
-0.318169 0.00234168 0
0.228853 0.00778684 0
-0.262782 -0.00383216 0
0.150286 0.0212627 0
-0.299544 0.00231008 0
-0.106925 -0.00426299 0
-0.248352 0.00944404 0
0.0907965 -0.0109255 0
-0.324782 0.00324399 0
0.310607 -0.000706618 0
-0.0874123 0.0235118 0
0.111234 0.0124524 0
-0.329144 0.00282899 0
0.312896 0.00162813 0
0.322477 -0.000398643 0
0.307948 0.00696035 0
0.329336 -0.00354996 0
[...]
      <PointData Scalars="T">
        <DataArray type="Float32" Name="T" format="ascii" NumberOfComponents="1">
312.765
406.78
312.458
312.458
406.78
572.901
312.458
634.231
312.458
406.78
312.458
312.765
406.78
419.034
586.558
312.765
419.034
302.316
301.87
406.78
406.78
312.765
406.78
312.458
312.458
312.765
419.034
312.458
406.78
406.78
406.78
419.034
302.484
312.458
312.765
312.458
301.881
406.78
419.034
419.034
312.765
312.765
419.034
303.214
301.07
406.78
312.765
312.458
309.938
311.149
312.765
419.034
406.78
312.765
406.78
406.78
312.458
312.765
312.765
312.458
312.765
312.765
312.458
312.458
406.78
640.312
312.458
312.458
312.765
301.462
406.78
312.765
300.986
312.765
312.765
419.034
312.765
406.78
312.765
585.364
419.034
406.78
312.765
580.314
312.458
406.78
312.458
419.034
406.78
419.034
312.765
419.034
312.458
406.78
419.034
406.78
312.765
406.78
406.78
419.034
419.034
419.034
312.458
419.034
312.458
312.765
312.765
312.765
312.765
419.034
406.78
406.78
406.78
312.765
312.765
406.78
406.78
312.765
592.905
419.034
312.458
419.034
312.458
406.78
312.458
312.458
312.765
312.765
419.034
312.458
312.458
312.458
650.658
406.78
312.458
312.458
312.458
406.78
312.458
312.458
312.458
312.765
312.458
419.034
406.78
312.458
406.78
573.25
419.034
406.78
312.765
312.765
419.034
312.458
312.765
312.765
312.458
406.78
419.034
312.458
312.458
419.034
406.78
406.78
406.78
312.458
312.458
312.765
312.765
589.168
312.458
406.78
419.034
312.765
419.034
406.78
406.78
419.034
419.034
419.034
313.292
406.78
406.78
312.765
312.458
312.458
312.458
304.538
312.458
312.765
312.458
312.458
419.034
312.765
406.78
304.348
406.78
406.78
406.78
312.765
406.78
312.765
312.458
419.034
312.458
419.034
312.765
312.458
406.78
419.034
302.918
419.034
312.458
406.78
419.034
406.78
406.78
312.458
419.034
406.78
406.78
406.78
419.034
312.458
312.765
406.78
301.047
312.458
406.78
419.034
419.034
312.765
312.765
406.78
406.78
406.78
312.458
419.034
406.78
312.458
312.723
419.034
406.78
419.034
312.765
312.765
406.78
312.458
312.765
312.765
312.765
406.78
312.458
419.034
406.78
312.458
406.78
312.765
312.765
306.36
301.238
406.78
312.458
312.458
406.78
609.064
406.78
419.034
312.458
312.458
312.458
419.034
312.765
312.765
406.78
406.78
312.458
406.78
312.765
419.034
419.034
419.034
406.78
312.458
406.78
419.034
406.78
406.78
406.78
312.458
406.78
312.458
312.458
312.765
312.765
312.765
312.765
406.78
574.432
606.357
301.315
406.78
312.458
312.765
312.458
312.765
406.78
312.765
565.189
406.78
406.78
312.765
406.78
312.458
312.458
406.78
312.458
312.458
312.458
312.765
406.78
406.78
310.362
312.458
312.765
419.034
406.78
303.761
419.034
312.765
312.458
312.458
312.765
406.78
419.034
419.034
312.458
312.458
406.78
312.458
406.78
406.78
406.78
406.78
419.034
312.765
406.78
638.92
406.78
312.458
312.458
406.78
312.765
312.458
419.034
312.765
406.78
419.034
312.765
312.458
312.765
419.034
582.981
419.034
406.78
312.458
419.034
406.78
312.765
605.768
406.78
406.78
312.765
312.458
406.78
312.458
419.034
419.034
631.561
312.458
419.034
312.765
406.78
572.821
406.78
312.765
406.78
312.765
406.78
406.78
419.034
406.78
312.458
312.765
406.78
312.765
301.881
406.78
419.034
312.458
603.713
312.458
312.458
419.034
312.458
312.458
312.458
312.458
309.609
312.765
406.78
312.765
419.034
312.765
406.78
419.034
406.78
312.458
406.78
312.458
406.78
312.765
406.78
307.348
312.458
312.765
312.458
406.78
406.78
312.458
406.78
312.765
406.78
312.765
623.377
419.034
406.78
406.78
312.765
302.211
406.78
312.458
563.033
419.034
419.034
406.78
419.034
312.765
312.458
419.034
312.765
419.034
419.034
312.458
312.458
419.034
406.78
583.327
419.034
301.835
419.034
305.628
406.78
419.034
312.458
312.765
419.034
419.034
406.78
406.78
312.765
578.515
312.458
312.458
312.765
406.78
406.78
406.78
312.458
312.765
592.011
419.034
419.034
406.78
301.904
312.765
312.458
301.04
406.78
312.765
312.765
301.013
406.78
312.765
312.458
419.034
312.458
406.78
406.78
406.78
419.034
419.034
419.034
419.034
419.034
312.458
312.458
312.458
312.765
312.458
312.765
312.765
419.034
312.765
406.78
312.458
312.765
406.78
312.765
406.78
587.834
406.78
583.616
312.765
312.458
312.765
312.458
312.458
312.458
406.78
312.765
312.765
561.762
312.765
571.661
406.78
419.034
312.458
312.458
406.78
406.78
419.034
419.034
419.034
312.765
312.765
309.089
312.765
419.034
406.78
312.765
406.78
302.776
312.765
419.034
406.78
312.458
406.78
312.765
312.765
419.034
312.765
419.034
312.458
634.695
406.78
301.841
312.458
419.034
419.034
598.336
406.78
406.78
312.765
312.458
312.458
301.462
312.765
419.034
585.239
419.034
419.034
406.78
312.765
312.458
406.78
312.765
419.034
301.013
312.765
306.068
406.78
312.765
419.034
636.255
312.765
312.458
419.034
312.765
406.78
312.458
312.458
312.765
312.458
419.034
419.034
406.78
685.218
312.765
419.034
312.458
419.034
419.034
312.765
312.458
419.034
419.034
406.78
406.78
312.458
312.458
406.78
419.034
419.034
312.765
312.458
406.78
406.78
312.458
312.458
312.765
312.765
406.78
419.034
419.034
419.034
419.034
312.765
406.78
312.765
312.765
419.034
406.78
312.458
312.458
419.034
406.78
312.458
419.034
419.034
406.78
312.458
419.034
406.78
312.765
406.78
406.78
312.458
312.765
406.78
312.765
312.458
574.671
312.765
312.458
406.78
406.78
312.458
312.458
312.458
312.765
312.765
419.034
419.034
406.78
406.78
312.765
406.78
419.034
302.166
312.765
406.78
406.78
406.78
312.458
312.765
312.765
312.765
406.78
312.458
312.458
619.509
406.78
312.765
312.458
312.765
312.765
312.765
406.78
312.765
312.765
312.458
406.78
312.765
406.78
312.458
312.765
312.458
312.765
312.458
406.78
309.089
613.186
312.765
406.78
406.78
406.78
312.458
419.034
312.765
406.78
312.458
312.765
419.034
312.458
603.713
419.034
639.935
406.78
406.78
406.78
312.458
312.458
312.458
312.458
312.458
575.387
312.765
406.78
419.034
312.458
312.458
406.78
301.835
406.78
312.765
406.78
406.78
406.78
419.034
419.034
302.166
406.78
312.765
406.78
419.034
406.78
419.034
419.034
312.458
312.765
312.458
406.78
419.034
406.78
574.432
419.034
406.78
419.034
312.765
406.78
419.034
312.458
312.458
312.458
591.376
406.78
419.034
312.765
419.034
301.904
406.78
419.034
419.034
312.765
312.458
312.765
303.996
312.458
406.78
406.78
312.458
406.78
312.765
406.78
312.765
406.78
419.034
312.765
406.78
303.445
406.78
406.78
312.458
301.841
419.034
312.765
312.458
302.668
312.765
406.78
419.034
419.034
312.765
406.78
303.756
312.765
312.458
312.458
419.034
406.78
304.87
406.78
406.78
312.458
312.458
312.765
312.458
406.78
419.034
312.765
406.78
312.765
312.765
406.78
406.78
312.765
646.646
312.458
312.458
406.78
406.78
312.458
302.123
406.78
419.034
419.034
312.765
303.146
585.239
406.78
406.78
583.771
419.034
312.458
406.78
312.458
589.159
312.458
312.458
587.39
312.458
406.78
312.765
312.458
406.78
419.034
312.765
312.458
312.765
312.765
312.765
312.765
406.78
312.765
312.458
419.034
312.458
312.765
406.78
312.458
312.458
312.765
406.78
406.78
419.034
312.458
419.034
312.458
419.034
406.78
406.78
312.765
419.034
627.894
419.034
312.458
626.606
406.78
312.458
312.765
419.034
419.034
312.458
406.78
312.458
312.458
419.034
312.765
419.034
315.661
312.458
312.765
312.458
312.765
312.765
406.78
316.017
312.458
312.458
406.78
312.458
419.034
406.78
419.034
312.458
312.765
406.78
419.034
406.78
312.458
406.78
406.78
313.191
312.458
312.765
312.765
406.78
406.78
312.458
406.78
312.765
406.78
419.034
303.596
419.034
312.458
406.78
419.034
406.78
406.78
406.78
585.695
419.034
406.78
406.78
312.765
602.134
312.458
312.458
312.458
312.458
312.765
406.78
312.458
406.78
312.765
406.78
312.765
312.148
419.034
312.765
406.78
312.458
312.765
312.458
419.034
312.458
406.78
301.803
419.034
419.034
312.765
419.034
406.78
406.78
419.034
312.458
312.765
312.765
312.765
419.034
312.458
419.034
312.458
304.472
312.765
312.765
312.765
312.458
312.458
419.034
312.765
312.765
419.034
406.78
312.458
406.78
300.952
406.78
419.034
406.78
578.515
419.034
406.78
312.765
419.034
312.765
586.558
312.458
406.78
312.765
406.78
406.78
312.765
312.765
406.78
312.458
312.765
312.114
302.776
419.034
406.78
419.034
653.405
312.458
406.78
306.959
406.78
406.78
312.458
312.458
406.78
312.765
312.458
310.913
312.458
406.78
313.292
312.765
406.78
406.78
406.78
419.034
406.78
312.458
406.78
312.458
419.034
307.169
312.458
312.765
406.78
419.034
419.034
406.78
312.458
312.765
419.034
312.458
301.66
419.034
419.034
312.458
406.78
302.335
312.458
312.765
419.034
406.78
406.78
406.78
312.765
631.626
312.765
577.337
406.78
312.458
312.765
312.765
312.458
312.765
419.034
612.2
419.034
406.78
312.458
312.765
312.765
312.765
312.765
312.765
419.034
406.78
406.78
406.78
419.034
406.78
406.78
307.516
312.458
312.458
312.458
312.458
406.78
312.458
406.78
302.259
419.034
406.78
312.765
406.78
634.695
312.458
640.975
312.458
312.458
312.458
312.458
312.765
312.765
312.458
312.765
419.034
301.101
573.25
312.765
312.765
313.374
419.034
312.458
419.034
312.765
312.765
312.765
312.765
406.78
312.458
406.78
312.765
313.374
312.458
629.819
629.618
633.307
312.458
312.458
419.034
312.765
406.78
312.765
312.458
419.034
406.78
573.123
312.458
312.765
406.78
312.458
406.78
312.765
406.78
406.78
561.803
406.78
312.458
312.458
419.034
406.78
406.78
406.78
312.458
419.034
312.765
406.78
312.765
312.765
406.78
406.78
312.765
406.78
312.458
312.458
312.458
406.78
303.002
312.458
419.034
406.78
312.458
406.78
312.458
406.78
406.78
312.458
419.034
419.034
312.458
313.284
312.765
312.458
312.765
419.034
312.765
312.765
406.78
406.78
312.458
406.78
312.765
301.07
582.779
406.78
312.765
628.63
577.071
301.546
312.458
636.108
583.655
312.458
406.78
602.134
419.034
419.034
406.78
312.458
312.458
406.78
406.78
312.458
419.034
312.458
312.765
312.765
406.78
406.78
312.458
577.071
312.765
406.78
312.765
312.458
573.162
312.458
312.458
419.034
406.78
419.034
419.034
406.78
406.78
406.78
406.78
312.765
312.458
312.458
406.78
312.458
406.78
406.78
312.458
406.78
406.78
312.765
406.78
419.034
312.458
419.034
419.034
312.765
406.78
312.765
315.661
312.458
312.458
406.78
312.765
303.146
406.78
406.78
312.765
406.78
406.78
305.628
312.458
312.458
419.034
312.458
406.78
303.936
312.458
616.771
406.78
406.78
312.458
312.458
406.78
406.78
406.78
419.034
315.368
419.034
312.458
419.034
419.034
311.149
312.765
312.458
419.034
312.765
312.458
312.765
590.566
312.458
619.509
419.034
406.78
406.78
579.486
419.034
419.034
312.765
312.765
419.034
406.78
406.78
312.458
406.78
406.78
406.78
419.034
419.034
312.458
312.458
312.765
406.78
312.765
312.765
312.458
419.034
312.458
306.588
312.765
301.928
312.765
406.78
610.565
620.968
406.78
406.78
312.458
419.034
419.034
312.765
406.78
419.034
406.78
579.241
406.78
406.78
639.935
312.458
419.034
419.034
406.78
419.034
406.78
312.458
419.034
406.78
312.458
312.458
312.458
419.034
419.034
406.78
312.765
406.78
419.034
305.133
406.78
406.78
406.78
312.765
406.78
312.765
312.765
312.458
419.034
312.458
303.258
419.034
622.945
312.458
312.765
419.034
406.78
406.78
312.458
406.78
419.034
406.78
312.765
312.765
312.458
312.765
419.034
406.78
406.78
312.458
312.765
406.78
312.765
312.765
419.034
419.034
419.034
312.765
312.765
312.765
406.78
312.765
618.136
312.765
406.78
406.78
572.821
312.765
312.458
312.458
312.458
419.034
312.458
312.458
589.169
406.78
312.765
312.765
309.883
406.78
312.458
406.78
312.458
312.765
312.458
301.66
419.034
406.78
625.741
312.765
312.458
312.458
312.458
406.78
312.765
406.78
312.765
312.458
312.765
419.034
307.945
406.78
312.765
312.765
312.458
419.034
312.458
312.458
312.458
312.458
312.765
612.2
312.765
312.458
406.78
419.034
419.034
570.207
406.78
406.78
573.297
406.78
312.458
312.458
419.034
312.765
406.78
591.376
406.78
312.458
419.034
419.034
312.765
312.458
312.765
312.765
312.765
572.821
312.765
312.765
312.458
312.765
406.78
303.357
599.732
419.034
419.034
312.458
419.034
406.78
406.78
406.78
406.78
406.78
633.307
406.78
312.765
312.765
312.458
406.78
312.458
406.78
312.458
312.765
406.78
301.252
309.58
312.765
312.765
312.458
583.327
312.458
301.603
406.78
312.765
580.127
312.765
406.78
312.458
312.458
406.78
406.78
419.034
406.78
419.034
406.78
312.458
312.458
312.458
419.034
312.765
406.78
312.458
419.034
312.765
406.78
406.78
419.034
406.78
312.458
312.458
419.034
312.458
312.765
419.034
406.78
312.723
312.765
406.78
312.765
312.765
312.458
312.458
312.458
419.034
406.78
419.034
419.034
312.765
312.458
312.765
301.857
312.458
406.78
631.626
629.554
312.458
301.546
312.458
312.458
406.78
312.458
312.765
312.765
312.765
312.458
312.765
406.78
406.78
406.78
312.765
406.78
406.78
312.458
301.238
313.347
300.903
406.78
312.765
406.78
312.765
312.765
406.78
312.458
419.034
419.034
419.034
312.458
419.034
419.034
583.655
419.034
419.034
406.78
419.034
419.034
590.566
312.458
406.78
406.78
312.765
312.765
312.458
312.458
312.765
406.78
406.78
312.765
419.034
419.034
312.765
406.78
419.034
309.747
312.765
312.458
406.78
406.78
312.458
406.78
406.78
312.458
419.034
301.825
309.659
312.458
312.458
406.78
406.78
406.78
312.458
406.78
406.78
406.78
406.78
419.034
406.78
312.765
419.034
406.78
406.78
312.765
406.78
312.458
406.78
583.153
312.765
406.78
419.034
312.458
312.458
419.034
419.034
623.377
312.458
579.756
406.78
579.756
419.034
406.78
419.034
419.034
312.765
312.458
419.034
406.78
312.458
312.765
312.458
419.034
312.458
312.458
312.765
312.765
406.78
419.034
406.78
406.78
312.216
406.78
312.765
406.78
419.034
419.034
312.458
300.96
419.034
406.78
312.458
589.168
312.765
312.458
312.765
312.458
312.458
312.765
406.78
419.034
419.034
406.78
312.458
312.458
419.034
310.211
583.376
406.78
406.78
419.034
406.78
312.765
312.458
406.78
419.034
312.765
312.765
406.78
312.458
406.78
312.458
312.458
312.458
406.78
312.765
312.458
312.458
312.765
419.034
300.919
419.034
419.034
312.458
312.458
419.034
406.78
312.765
312.458
312.458
419.034
419.034
406.78
312.765
312.765
419.034
312.765
312.458
612.2
312.458
312.765
406.78
419.034
639.935
406.78
406.78
595.545
406.78
406.78
312.765
419.034
301.238
419.034
419.034
312.765
573.424
406.78
406.78
419.034
312.458
406.78
419.034
312.765
406.78
583.616
406.78
312.765
312.458
312.765
312.458
419.034
419.034
406.78
419.034
406.78
406.78
419.034
406.78
406.78
312.458
312.765
312.765
304.864
302.259
419.034
419.034
312.765
312.765
419.034
419.034
406.78
312.458
573.424
406.78
406.78
312.458
406.78
312.458
312.765
302.013
312.458
406.78
312.765
406.78
406.78
419.034
312.765
406.78
312.765
302.211
311.805
312.458
406.78
419.034
307.19
312.458
301.904
312.765
312.765
312.458
419.034
312.458
312.458
406.78
627.06
406.78
312.458
312.458
312.458
406.78
572.821
406.78
312.765
406.78
312.765
563.033
306.972
312.458
312.458
312.458
406.78
312.765
419.034
306.588
312.458
312.765
406.78
419.034
419.034
406.78
419.034
419.034
308.454
406.78
419.034
312.458
312.458
312.765
406.78
406.78
419.034
419.034
312.765
406.78
419.034
419.034
312.765
406.78
620.682
312.458
406.78
312.765
419.034
312.458
406.78
419.034
312.765
406.78
312.458
419.034
406.78
312.458
312.765
419.034
406.78
406.78
312.458
406.78
419.034
312.458
634.231
312.765
312.765
643.456
312.765
312.458
312.458
312.458
303.596
419.034
312.458
312.765
609.614
312.765
406.78
419.034
419.034
406.78
419.034
312.458
419.034
312.765
312.765
312.765
312.458
312.765
312.458
312.458
312.765
419.034
312.765
312.765
419.034
312.458
312.458
312.765
301.238
419.034
312.458
312.458
419.034
312.765
419.034
419.034
312.458
406.78
406.78
312.458
406.78
312.765
303.596
312.765
312.458
312.458
312.458
312.458
312.458
301.723
406.78
419.034
637.538
312.765
306.959
406.78
312.458
312.458
419.034
312.458
312.765
312.458
312.458
312.458
406.78
312.765
312.458
406.78
312.458
419.034
312.765
312.458
312.765
406.78
419.034
312.765
406.78
406.78
312.458
312.458
312.458
406.78
312.765
301.128
617.233
406.78
312.458
312.458
312.765
419.034
419.034
419.034
312.458
312.765
312.458
419.034
406.78
312.458
306.588
312.765
312.765
312.458
406.78
312.765
419.034
312.765
406.78
406.78
312.765
312.765
406.78
564.986
312.765
419.034
616.771
587
611.584
406.78
406.78
419.034
312.458
312.458
419.034
312.765
419.034
312.765
312.458
419.034
312.458
312.458
406.78
312.458
577.285
565.189
406.78
406.78
312.765
312.765
312.458
419.034
312.458
419.034
312.458
312.458
406.78
419.034
406.78
305.628
303.14
312.765
310.913
419.034
312.458
406.78
312.458
406.78
312.458
406.78
406.78
312.765
312.458
419.034
312.458
406.78
312.765
406.78
419.034
419.034
419.034
312.458
406.78
419.034
561.803
419.034
419.034
312.458
406.78
312.458
312.458
312.765
312.458
312.765
312.458
406.78
419.034
561.762
312.765
312.765
406.78
312.458
312.458
312.458
312.458
406.78
406.78
312.765
312.765
312.458
312.458
603.713
301.07
419.034
406.78
406.78
312.458
406.78
301.546
419.034
312.458
406.78
419.034
312.765
406.78
312.765
312.458
312.765
627.657
419.034
308.142
312.458
312.458
312.458
312.765
419.034
312.765
310.554
406.78
312.458
312.765
312.458
419.034
312.765
312.765
419.034
573.416
561.803
308.584
312.458
406.78
406.78
634.695
419.034
312.458
312.458
406.78
419.034
312.458
419.034
406.78
406.78
312.458
312.765
419.034
633.307
419.034
312.458
419.034
419.034
312.765
312.765
312.765
312.765
406.78
419.034
419.034
419.034
312.765
312.458
312.765
312.458
406.78
406.78
406.78
406.78
419.034
406.78
406.78
303.761
312.765
312.458
312.458
419.034
419.034
406.78
406.78
406.78
312.458
579.756
312.765
312.765
312.458
419.034
419.034
312.458
312.765
312.458
419.034
312.765
406.78
406.78
312.458
312.458
312.458
312.458
312.765
312.765
312.765
312.765
312.458
312.458
583.655
312.458
406.78
312.765
406.78
406.78
572.821
312.458
312.458
629.315
312.765
406.78
419.034
406.78
419.034
312.458
406.78
588.26
312.458
301.133
419.034
406.78
406.78
589.381
312.458
312.458
312.458
419.034
301.538
305.841
312.458
629.9
629.554
312.458
315.147
312.765
312.765
312.458
312.765
419.034
312.458
300.903
312.765
406.78
406.78
406.78
406.78
406.78
312.458
629.554
626.522
406.78
406.78
406.78
310.912
309.58
312.458
406.78
312.458
312.458
312.458
312.458
312.765
406.78
406.78
419.034
312.458
406.78
312.458
419.034
312.458
581.982
573.123
406.78
312.765
419.034
419.034
312.765
419.034
304.348
406.78
309.58
312.765
312.765
629.066
312.765
406.78
419.034
312.458
406.78
312.458
312.458
312.765
312.765
312.765
406.78
312.765
606.039
419.034
301.881
419.034
419.034
598.336
312.458
406.78
580.127
406.78
312.458
419.034
406.78
312.765
312.458
312.458
419.034
406.78
300.951
406.78
406.78
312.765
419.034
406.78
419.034
406.78
419.034
406.78
406.78
303.756
312.765
406.78
419.034
312.458
312.458
419.034
406.78
312.765
306.588
312.765
406.78
406.78
312.458
419.034
406.78
419.034
302.259
312.458
312.458
311.539
312.765
312.765
312.765
312.458
406.78
419.034
585.364
583.153
419.034
406.78
312.765
406.78
312.765
307.19
406.78
312.458
312.765
419.034
419.034
303.14
406.78
406.78
312.765
406.78
591.765
406.78
406.78
419.034
406.78
419.034
406.78
406.78
312.765
419.034
419.034
406.78
419.034
312.765
305.892
312.765
312.765
406.78
419.034
312.458
406.78
406.78
419.034
312.458
312.458
406.78
419.034
312.765
312.458
419.034
406.78
419.034
419.034
406.78
312.458
406.78
419.034
312.765
312.765
406.78
419.034
312.458
312.458
406.78
419.034
406.78
406.78
631.561
312.458
312.765
312.765
312.765
312.765
406.78
312.458
312.458
312.765
406.78
419.034
406.78
419.034
312.765
312.458
312.458
312.458
406.78
406.78
406.78
312.458
406.78
301.603
419.034
312.458
406.78
312.765
312.458
406.78
628.34
406.78
312.458
406.78
406.78
419.034
312.458
406.78
312.458
406.78
419.034
312.765
312.458
419.034
406.78
312.458
312.765
312.765
312.765
312.458
406.78
312.765
312.458
406.78
406.78
312.458
312.458
406.78
406.78
580.993
312.458
312.458
406.78
312.458
312.765
406.78
312.765
301.841
620.968
419.034
406.78
312.765
406.78
419.034
312.458
406.78
312.458
312.458
621.969
312.765
419.034
406.78
406.78
419.034
312.458
312.458
312.765
312.458
301.66
312.765
406.78
611.584
419.034
406.78
312.458
592.905
312.458
406.78
406.78
406.78
309.659
312.765