<?xml version="1.0"?>
<VTKFile type="ImageData" version="0.1" byte_order="LittleEndian">
  <ImageData Origin="0 0 0" Spacing="1e-05 1e-05 1e-05" WholeExtent="0 191 0 191 0 0">
    <Piece Extent="0 191 0 191 0 0">
      <CellData Scalars="T">
        <DataArray type="Float32" Name="T" format="ascii" NumberOfComponents="1">
594.163
15000
15000
15000
15000
15000
15000
15000
15000
15000
15000
15000
15000
15000
15000
15000
15000
15000
15000
15000
15000
15000
15000
15000
15000
15000
14999.9
14999.9
14999.9
14999.9
14999.8
14999.8
14999.7
14999.6
14999.5
14999.4
14999.2
14999
14998.7
14998.4
14997.9
14997.4
14996.8
14996
14995.1
14993.9
14992.5
14990.8
14988.8
14986.4
14983.5
14980.1
14976
14971.2
14965.5
14958.8
14951
14942
14931.4
14919.3
14905.2
14889.1
14870.6
14849.5
14825.5
14798.3
14767.6
14733
14694.2
14650.7
14602.3
14548.4
14488.8
14422.9
14350.5
14271
14184.1
14089.5
13986.6
13875.3
13755.2
13626
13487.5
13339.4
13181.7
13014.3
12837
12650
12453.4
12247.2
12031.8
11807.4
11574.4
11333.4
11084.6
10828.9
10566.7
10298.9
10026.1
9749.24
9469.06
9186.49
8902.44
8617.82
8333.58
8050.67
7770.02
7492.55
7219.15
6950.71
6688.04
6431.95
6183.16
5942.37
5710.19
5487.18
5273.85
5070.61
4877.82
4695.77
4524.67
4364.68
4215.88
4078.28
3951.86
3836.51
3732.09
3638.39
3555.17
3482.17
3419.05
3365.48
3321.09
3285.48
3258.25
3238.98
3227.24
3222.59
3224.59
3232.81
3246.81
3266.16
3290.43
3319.21
3352.08
3388.64
3428.5
3471.29
3516.62
3564.16
3613.54
3664.43
3716.5
3769.45
3822.97
3876.77
3930.57
3984.1
4037.11
4089.34
4140.58
4190.59
4239.16
4286.1
4331.23
4374.38
4415.37
4454.08
4490.37
4524.12
4555.23
4583.62
4609.19
4631.89
4651.66
4668.46
4682.24
4692.93
4700.44
4704.58
4704.99
4700.95
4691.05
4672.53
4640.05
4583.19
4481.73
4296.15
3948.31
3280.13
1955.51
326.821
1892.26
15000
15000
15000
15000
15000
15000
15000
15000
15000
15000
15000
15000
15000
15000
15000
15000
15000
15000
15000
15000
15000
15000
15000
15000
15000
14999.9
14999.9
14999.9
14999.9
14999.8
14999.8
14999.7
14999.6
14999.5
14999.4
14999.2
14999
14998.7
14998.4
14997.9
14997.4
14996.8
14996
14995.1
14993.9
14992.5
14990.8
14988.8
14986.4
14983.5
14980.1
14976
14971.2
14965.5
14958.8
14951
14942
14931.5
14919.3
14905.2
14889.1
14870.6
14849.6
14825.6
14798.4
14767.7
14733.1
14694.2
14650.8
14602.3
14548.5
14488.9
14423
14350.6
14271.1
14184.3
14089.6
13986.8
13875.5
13755.4
13626.2
13487.7
13339.6
13182
13014.5
12837.3
12650.3
12453.6
12247.5
12032.1
11807.7
11574.8
11333.7
11084.9
10829.2
10567
10299.2
10026.4
9749.49
9469.29
9186.69
8902.6
8617.95
8333.67
8050.72
7770.01
7492.48
7219.03
6950.52
6687.79
6431.62
6182.76
5941.88
5709.62
5486.52
5273.09
5069.75
4876.87
4694.71
4523.51
4363.42
4214.51
4076.8
3950.27
3834.81
3730.27
3636.46
3553.14
3480.02
3416.8
3363.12
3318.62
3282.91
3255.58
3236.21
3224.37
3219.62
3221.53
3229.67
3243.58
3262.85
3287.05
3315.75
3348.55
3385.05
3424.85
3467.58
3512.87
3560.36
3609.7
3660.56
3712.6
3765.53
3819.03
3872.82
3926.61
3980.14
4033.15
4085.39
4136.64
4186.67
4235.26
4282.23
4327.39
4370.56
4411.59
4450.34
4486.67
4520.46
4551.62
4580.05
4605.67
4628.42
4648.24
4665.08
4678.91
4689.65
4697.21
4701.4
4701.85
4697.87
4688.04
4669.64
4637.38
4581.05
4481.02
4299.65
3965.57
3346.67
2213.22
414.062
1896.32
15000
15000
15000
15000
15000
15000
15000
15000
15000
15000
15000
15000
15000
15000
15000
15000
15000
15000
15000
15000
15000
15000
15000
15000
15000
14999.9
14999.9
14999.9
14999.9
14999.8
14999.8
14999.7
14999.6
14999.5
14999.4
14999.2
14999
14998.7
14998.4
14997.9
14997.4
14996.8
14996
14995.1
14993.9
14992.5
14990.8
14988.8
14986.4
14983.5
14980.1
14976
14971.2
14965.5
14958.8
14951.1
14942
14931.5
14919.3
14905.3
14889.2
14870.7
14849.6
14825.6
14798.5
14767.8
14733.2
14694.3
14650.9
14602.5
14548.7
14489.1
14423.2
14350.8
14271.4
14184.5
14089.9
13987.1
13875.8
13755.8
13626.6
13488.1
13340.1
13182.4
13015
12837.8
12650.8
12454.2
12248.1
12032.7
11808.3
11575.4
11334.3
11085.6
10829.8
10567.6
10299.7
10026.9
9749.98
9469.74
9187.08
8902.93
8618.21
8333.85
8050.81
7770
7492.36
7218.79
6950.16
6687.29
6430.97
6181.95
5940.91
5708.48
5485.2
5271.59
5068.06
4874.98
4692.62
4521.21
4360.9
4211.78
4073.86
3947.1
3831.42
3726.67
3632.63
3549.09
3475.75
3412.31
3358.42
3313.71
3277.79
3250.25
3230.68
3218.64
3213.71
3215.44
3223.4
3237.14
3256.25
3280.29
3308.85
3341.52
3377.89
3417.57
3460.2
3505.39
3552.79
3602.05
3652.84
3704.83
3757.71
3811.17
3864.94
3918.71
3972.24
4025.25
4077.51
4128.78
4178.84
4227.48
4274.5
4319.71
4362.95
4404.05
4442.87
4479.28
4513.16
4544.41
4572.92
4598.64
4621.48
4641.4
4658.34
4672.26
4683.09
4690.75
4695.03
4695.58
4691.71
4682.01
4663.81
4631.91
4576.35
4478.1
4301.09
3977.92
3385.88
2307.1
407.048
1915.09
15000
15000
15000
15000
15000
15000
15000
15000
15000
15000
15000
15000
15000
15000
15000
15000
15000
15000
15000
15000
15000
15000
15000
15000
15000
14999.9
14999.9
14999.9
14999.9
14999.8
14999.8
14999.7
14999.6
14999.5
14999.4
14999.2
14999
14998.7
14998.4
14998
14997.4
14996.8
14996
14995.1
14993.9
14992.5
14990.9
14988.8
14986.4
14983.5
14980.1
14976
14971.2
14965.5
14958.9
14951.1
14942
14931.5
14919.4
14905.3
14889.2
14870.8
14849.7
14825.8
14798.6
14767.9
14733.3
14694.5
14651.1
14602.7
14548.9
14489.3
14423.5
14351.2
14271.7
14184.9
14090.3
13987.6
13876.4
13756.3
13627.2
13488.7
13340.8
13183.1
13015.8
12838.6
12651.6
12455
12248.9
12033.6
11809.2
11576.3
11335.2
11086.5
10830.7
10568.5
10300.6
10027.7
9750.72
9470.41
9187.68
8903.43
8618.6
8334.13
8050.94
7769.99
7492.19
7218.45
6949.62
6686.54
6430.01
6180.76
5939.48
5706.79
5483.25
5269.36
5065.55
4872.17
4689.51
4517.79
4357.17
4207.72
4069.48
3942.4
3826.38
3721.29
3626.93
3543.06
3469.39
3405.63
3351.41
3306.38
3270.15
3242.31
3222.44
3210.11
3204.9
3206.36
3214.05
3227.54
3246.41
3270.22
3298.56
3331.02
3367.21
3406.72
3449.18
3494.22
3541.49
3590.63
3641.32
3693.22
3746.03
3799.44
3853.17
3906.92
3960.44
4013.46
4065.74
4117.04
4167.15
4215.85
4262.94
4308.24
4351.57
4392.78
4431.71
4468.24
4502.25
4533.62
4562.28
4588.13
4611.11
4631.17
4648.25
4662.31
4673.29
4681.08
4685.5
4686.2
4682.48
4672.97
4655.02
4623.53
4568.72
4471.93
4297.77
3979.3
3390
2285.1
401.574
1918.1
15000
15000
15000
15000
15000
15000
15000
15000
15000
15000
15000
15000
15000
15000
15000
15000
15000
15000
15000
15000
15000
15000
15000
15000
15000
14999.9
14999.9
14999.9
14999.9
14999.8
14999.8
14999.7
14999.6
14999.5
14999.4
14999.2
14999
14998.7
14998.4
14998
14997.4
14996.8
14996
14995.1
14993.9
14992.5
14990.9
14988.8
14986.4
14983.5
14980.1
14976
14971.2
14965.6
14958.9
14951.1
14942.1
14931.6
14919.4
14905.4
14889.3
14870.9
14849.8
14825.9
14798.7
14768.1
14733.5
14694.7
14651.4
14603
14549.2
14489.7
14423.9
14351.6
14272.2
14185.5
14090.9
13988.2
13877
13757
13628
13489.6
13341.7
13184.1
13016.7
12839.6
12652.7
12456.2
12250.1
12034.7
11810.4
11577.5
11336.4
11087.7
10831.9
10569.7
10301.7
10028.8
9751.71
9471.31
9188.47
8904.11
8619.14
8334.5
8051.14
7770
7491.98
7218
6948.92
6685.58
6428.76
6179.21
5937.61
5704.58
5480.69
5266.43
5062.24
4868.47
4685.41
4513.29
4352.24
4202.37
4063.7
3936.19
3819.74
3714.21
3619.41
3535.1
3461
3396.8
3342.16
3296.71
3260.07
3231.82
3211.55
3198.84
3193.25
3194.35
3201.69
3214.85
3233.4
3256.9
3284.96
3317.14
3353.07
3392.35
3434.59
3479.44
3526.53
3575.51
3626.06
3677.85
3730.57
3783.9
3837.57
3891.29
3944.8
3997.83
4050.13
4101.48
4151.65
4200.43
4247.62
4293.03
4336.48
4377.83
4416.91
4453.59
4487.77
4519.31
4548.14
4574.18
4597.34
4617.59
4634.86
4649.11
4660.27
4668.25
4672.86
4673.74
4670.22
4660.93
4643.26
4612.17
4557.98
4462.22
4289.59
3972.64
3381.63
2266.5
399.226
1938.05
15000
15000
15000
15000
15000
15000
15000
15000
15000
15000
15000
15000
15000
15000
15000
15000
15000
15000
15000
15000
15000
15000
15000
15000
15000
14999.9
14999.9
14999.9
14999.9
14999.8
14999.8
14999.7
14999.6
14999.5
14999.4
14999.2
14999
14998.7
14998.4
14998
14997.4
14996.8
14996
14995.1
14993.9
14992.6
14990.9
14988.9
14986.4
14983.6
14980.1
14976.1
14971.2
14965.6
14959
14951.2
14942.2
14931.7
14919.5
14905.5
14889.4
14871
14850
14826.1
14798.9
14768.3
14733.8
14695
14651.7
14603.4
14549.6
14490.1
14424.4
14352.1
14272.8
14186.1
14091.6
13989
13877.9
13758
13628.9
13490.6
13342.8
13185.2
13018
12840.9
12654.1
12457.6
12251.5
12036.2
11811.9
11579
11337.9
11089.2
10833.4
10571.1
10303.1
10030.1
9752.95
9472.44
9189.47
8904.96
8619.81
8334.99
8051.41
7770.02
7491.75
7217.48
6948.09
6684.42
6427.24
6177.31
5935.32
5701.87
5477.55
5262.84
5058.18
4863.93
4680.38
4507.75
4346.19
4195.79
4056.59
3928.54
3811.55
3705.48
3610.14
3525.28
3450.64
3385.91
3330.74
3284.77
3247.61
3218.86
3198.1
3184.91
3178.86
3179.5
3186.41
3199.15
3217.3
3240.42
3268.11
3299.96
3335.57
3374.55
3416.53
3461.12
3507.99
3556.78
3607.16
3658.8
3711.39
3764.64
3818.24
3871.91
3925.4
3978.43
4030.77
4082.17
4132.42
4181.29
4228.59
4274.14
4317.74
4359.25
4398.52
4435.4
4469.77
4501.53
4530.58
4556.84
4580.24
4600.71
4618.22
4632.7
4644.09
4652.29
4657.13
4658.24
4654.95
4645.92
4628.55
4597.84
4544.19
4449.17
4277.54
3961.86
3373.12
2266.7
397.185
1927.79
15000
15000
15000
15000
15000
15000
15000
15000
15000
15000
15000
15000
15000
15000
15000
15000
15000
15000
15000
15000
15000
15000
15000
15000
15000
14999.9
14999.9
14999.9
14999.9
14999.8
14999.8
14999.7
14999.6
14999.5
14999.4
14999.2
14999
14998.7
14998.4
14998
14997.4
14996.8
14996
14995.1
14994
14992.6
14990.9
14988.9
14986.5
14983.6
14980.1
14976.1
14971.3
14965.6
14959
14951.3
14942.2
14931.8
14919.6
14905.6
14889.6
14871.2
14850.2
14826.3
14799.2
14768.6
14734.1
14695.4
14652.1
14603.8
14550.1
14490.7
14425
14352.8
14273.6
14186.9
14092.5
13989.9
13878.9
13759
13630.1
13491.8
13344.1
13186.6
13019.4
12842.4
12655.7
12459.2
12253.2
12038
11813.7
11580.8
11339.7
11091
10835.1
10572.8
10304.8
10031.7
9754.44
9473.8
9190.68
8905.99
8620.65
8335.59
8051.76
7770.09
7491.5
7216.89
6947.14
6683.07
6425.48
6175.11
5932.64
5698.71
5473.87
5258.63
5053.42
4858.6
4674.46
4501.23
4339.06
4188.04
4048.21
3919.52
3801.89
3695.18
3599.19
3513.69
3438.41
3373.04
3317.25
3270.65
3232.88
3203.53
3182.19
3168.43
3161.82
3161.92
3168.31
3180.55
3198.22
3220.89
3248.15
3279.6
3314.82
3353.45
3395.1
3439.4
3486
3534.55
3584.72
3636.18
3688.62
3741.75
3795.26
3848.88
3902.34
3955.38
4007.75
4059.21
4109.54
4158.52
4205.96
4251.66
4295.44
4337.15
4376.62
4413.73
4448.34
4480.35
4509.66
4536.18
4559.85
4580.6
4598.38
4613.13
4624.8
4633.27
4638.37
4639.76
4636.74
4628
4610.95
4580.61
4527.43
4433.02
4262.17
3947.4
3359.43
2247.83
393.801
1906.42
15000
15000
15000
15000
15000
15000
15000
15000
15000
15000
15000
15000
15000
15000
15000
15000
15000
15000
15000
15000
15000
15000
15000
15000
15000
14999.9
14999.9
14999.9
14999.9
14999.8
14999.8
14999.7
14999.6
14999.5
14999.4
14999.2
14999
14998.7
14998.4
14998
14997.4
14996.8
14996
14995.1
14994
14992.6
14990.9
14988.9
14986.5
14983.6
14980.2
14976.1
14971.3
14965.7
14959.1
14951.3
14942.3
14931.9
14919.7
14905.8
14889.7
14871.4
14850.4
14826.5
14799.5
14768.9
14734.4
14695.8
14652.5
14604.3
14550.7
14491.3
14425.7
14353.6
14274.4
14187.8
14093.5
13991
13880
13760.3
13631.4
13493.3
13345.6
13188.2
13021.1
12844.2
12657.5
12461.1
12255.2
12040
11815.8
11582.9
11341.8
11093.1
10837.2
10574.9
10306.7
10033.6
9756.18
9475.4
9192.11
8907.22
8621.64
8336.32
8052.2
7770.2
7491.26
7216.27
6946.1
6681.58
6423.51
6172.63
5929.63
5695.13
5469.71
5253.86
5048.01
4852.54
4667.72
4493.8
4330.93
4179.2
4038.64
3909.22
3790.85
3683.39
3586.66
3500.43
3424.41
3358.31
3301.78
3254.47
3216
3185.96
3163.93
3149.51
3142.25
3141.74
3147.52
3159.19
3176.3
3198.44
3225.2
3256.17
3290.96
3329.17
3370.43
3414.39
3460.67
3508.94
3558.86
3610.11
3662.38
3715.36
3768.77
3822.32
3875.74
3928.78
3981.18
4032.7
4083.12
4132.23
4179.81
4225.69
4269.67
4311.6
4351.31
4388.67
4423.56
4455.85
4485.46
4512.29
4536.26
4557.33
4575.42
4590.49
4602.46
4611.25
4616.66
4618.35
4615.64
4607.22
4590.51
4560.56
4507.84
4414.01
4243.86
3929.74
3341.3
2227.8
392.507
1895.96
15000
15000
15000
15000
15000
15000
15000
15000
15000
15000
15000
15000
15000
15000
15000
15000
15000
15000
15000
15000
15000
15000
15000
15000
15000
14999.9
14999.9
14999.9
14999.9
14999.8
14999.8
14999.7
14999.6
14999.5
14999.4
14999.2
14999
14998.7
14998.4
14998
14997.5
14996.8
14996.1
14995.1
14994
14992.6
14990.9
14988.9
14986.5
14983.6
14980.2
14976.2
14971.4
14965.8
14959.1
14951.4
14942.4
14932
14919.9
14905.9
14889.9
14871.6
14850.6
14826.8
14799.8
14769.2
14734.8
14696.2
14653
14604.9
14551.3
14492
14426.5
14354.4
14275.3
14188.9
14094.6
13992.2
13881.4
13761.7
13633
13494.9
13347.3
13190.1
13023
12846.2
12659.6
12463.3
12257.5
12042.3
11818.1
11585.3
11344.2
11095.5
10839.6
10577.2
10309
10035.7
9758.17
9477.24
9193.76
8908.64
8622.81
8337.2
8052.75
7770.39
7491.05
7215.63
6944.99
6679.97
6421.37
6169.92
5926.32
5691.19
5465.11
5248.57
5042.02
4845.81
4660.24
4485.54
4321.88
4169.35
4027.97
3897.73
3778.53
3670.24
3572.67
3485.6
3408.75
3341.82
3284.47
3236.36
3197.08
3166.26
3143.47
3128.3
3120.31
3119.09
3124.19
3135.2
3151.68
3173.22
3199.41
3229.84
3264.12
3301.86
3342.69
3386.24
3432.16
3480.1
3529.74
3580.74
3632.81
3685.62
3738.9
3792.37
3845.74
3898.76
3951.19
4002.77
4053.29
4102.53
4150.28
4196.34
4240.54
4282.71
4322.69
4360.34
4395.53
4428.14
4458.08
4485.24
4509.57
4530.98
4549.42
4564.85
4577.17
4586.31
4592.06
4594.1
4591.73
4583.66
4567.32
4537.79
4485.57
4392.42
4223.32
3911.22
3327.97
2231.07
393.5
1905
15000
15000
15000
15000
15000
15000
15000
15000
15000
15000
15000
15000
15000
15000
15000
15000
15000
15000
15000
15000
15000
15000
15000
15000
15000
14999.9
14999.9
14999.9
14999.9
14999.8
14999.8
14999.7
14999.6
14999.5
14999.4
14999.2
14999
14998.7
14998.4
14998
14997.5
14996.8
14996.1
14995.1
14994
14992.6
14990.9
14988.9
14986.5
14983.7
14980.3
14976.2
14971.4
14965.8
14959.2
14951.5
14942.5
14932.1
14920
14906.1
14890.1
14871.8
14850.9
14827.1
14800.1
14769.6
14735.3
14696.7
14653.6
14605.5
14552
14492.8
14427.4
14355.4
14276.4
14190
14095.8
13993.6
13882.8
13763.3
13634.6
13496.7
13349.2
13192.1
13025.2
12848.5
12661.9
12465.7
12260
12044.9
11820.7
11587.9
11346.9
11098.1
10842.2
10579.7
10311.5
10038.1
9760.43
9479.32
9195.63
8910.27
8624.16
8338.23
8053.42
7770.67
7490.9
7215
6943.85
6678.29
6419.09
6167.02
5922.76
5686.94
5460.13
5242.84
5035.5
4838.48
4652.08
4476.53
4312
4158.58
4016.3
3885.15
3765.03
3655.82
3557.33
3469.33
3391.56
3323.71
3265.46
3216.44
3176.28
3144.59
3120.95
3104.94
3096.14
3094.13
3098.47
3108.75
3124.52
3145.39
3170.94
3200.76
3234.47
3271.68
3312.02
3355.12
3400.63
3448.2
3497.51
3548.24
3600.06
3652.69
3705.81
3759.17
3812.48
3865.48
3917.93
3969.57
4020.19
4069.57
4117.48
4163.75
4208.19
4250.62
4290.89
4328.85
4364.36
4397.32
4427.62
4455.16
4479.86
4501.66
4520.49
4536.3
4549.02
4558.53
4564.67
4567.08
4565.1
4557.41
4541.48
4512.41
4460.76
4368.42
4200.71
3891.4
3314.33
2228.59
395.408
1906.1
15000
15000
15000
15000
15000
15000
15000
15000
15000
15000
15000
15000
15000
15000
15000
15000
15000
15000
15000
15000
15000
15000
15000
15000
15000
14999.9
14999.9
14999.9
14999.9
14999.8
14999.8
14999.7
14999.6
14999.5
14999.4
14999.2
14999
14998.7
14998.4
14998
14997.5
14996.8
14996.1
14995.1
14994
14992.6
14991
14989
14986.6
14983.7
14980.3
14976.3
14971.5
14965.9
14959.3
14951.6
14942.6
14932.2
14920.2
14906.3
14890.3
14872
14851.2
14827.4
14800.5
14770
14735.8
14697.3
14654.2
14606.2
14552.8
14493.6
14428.3
14356.4
14277.5
14191.2
14097.2
13995.1
13884.4
13765
13636.5
13498.7
13351.3
13194.3
13027.5
12850.9
12664.5
12468.4
12262.7
12047.7
11823.6
11590.9
11349.8
11101.1
10845.1
10582.6
10314.2
10040.7
9762.94
9481.64
9197.73
8912.11
8625.7
8339.43
8054.24
7771.07
7490.83
7214.42
6942.71
6676.55
6416.73
6163.98
5919
5682.43
5454.84
5236.73
5028.54
4830.64
4643.34
4466.86
4301.38
4147
4003.74
3871.6
3750.48
3640.26
3540.76
3451.75
3372.97
3304.12
3244.88
3194.88
3153.75
3121.1
3096.53
3079.61
3069.92
3067.04
3070.55
3080.01
3095.01
3115.14
3139.98
3169.13
3202.21
3238.83
3278.62
3321.21
3366.26
3413.42
3462.37
3512.77
3564.32
3616.72
3669.68
3722.91
3776.13
3829.1
3881.56
3933.26
3983.98
4033.49
4081.58
4128.06
4172.74
4215.45
4256.03
4294.32
4330.19
4363.52
4394.2
4422.14
4447.25
4469.47
4488.72
4504.95
4518.09
4528.03
4534.58
4537.4
4535.83
4528.56
4513.08
4484.52
4433.52
4342.15
4176.16
3870.44
3301.95
2240.06
400.764
1883.5
15000
15000
15000
15000
15000
15000
15000
15000
15000
15000
15000
15000
15000
15000
15000
15000
15000
15000
15000
15000
15000
15000
15000
15000
15000
14999.9
14999.9
14999.9
14999.9
14999.8
14999.8
14999.7
14999.6
14999.5
14999.4
14999.2
14999
14998.7
14998.4
14998
14997.5
14996.8
14996.1
14995.1
14994
14992.6
14991
14989
14986.6
14983.7
14980.3
14976.3
14971.6
14966
14959.4
14951.7
14942.8
14932.4
14920.4
14906.5
14890.6
14872.3
14851.5
14827.8
14800.9
14770.5
14736.3
14697.9
14654.9
14606.9
14553.6
14494.5
14429.3
14357.5
14278.8
14192.6
14098.7
13996.7
13886.2
13766.9
13638.5
13500.8
13353.6
13196.7
13030.1
12853.6
12667.3
12471.3
12265.7
12050.8
11826.8
11594
11353.1
11104.3
10848.3
10585.7
10317.3
10043.7
9765.71
9484.22
9200.07
8914.18
8627.45
8340.82
8055.22
7771.59
7490.85
7213.9
6941.61
6674.81
6414.31
6160.84
5915.1
5677.72
5449.29
5230.3
5021.2
4822.37
4634.1
4456.63
4290.13
4134.71
3990.4
3857.19
3734.99
3623.69
3523.1
3433.01
3353.14
3283.21
3222.89
3171.83
3129.65
3095.97
3070.38
3052.47
3041.82
3038
3040.59
3049.17
3063.33
3082.64
3106.71
3135.13
3167.52
3203.49
3242.67
3284.71
3329.25
3375.96
3424.49
3474.54
3525.78
3577.93
3630.68
3683.75
3736.88
3789.8
3842.25
3894
3944.81
3994.46
4042.73
4089.43
4134.37
4177.36
4218.26
4256.9
4293.14
4326.86
4357.96
4386.32
4411.87
4434.53
4454.24
4470.92
4484.51
4494.9
4501.89
4505.16
4504.03
4497.22
4482.22
4454.21
4403.93
4313.63
4149.44
3846.97
3284.1
2228.35
403.844
1871.48
15000
15000
15000
15000
15000
15000
15000
15000
15000
15000
15000
15000
15000
15000
15000
15000
15000
15000
15000
15000
15000
15000
15000
15000
15000
14999.9
14999.9
14999.9
14999.9
14999.8
14999.8
14999.7
14999.6
14999.5
14999.4
14999.2
14999
14998.7
14998.4
14998
14997.5
14996.9
14996.1
14995.2
14994
14992.7
14991
14989
14986.6
14983.8
14980.4
14976.4
14971.6
14966.1
14959.5
14951.8
14942.9
14932.6
14920.6
14906.7
14890.8
14872.6
14851.8
14828.2
14801.3
14771
14736.9
14698.5
14655.6
14607.7
14554.5
14495.5
14430.4
14358.7
14280.1
14194.1
14100.3
13998.4
13888
13768.9
13640.7
13503.1
13356.1
13199.3
13032.8
12856.5
12670.3
12474.4
12268.9
12054.1
11830.1
11597.5
11356.5
11107.8
10851.8
10589.1
10320.6
10046.9
9768.74
9487.04
9202.66
8916.47
8629.41
8342.4
8056.38
7772.27
7491.01
7213.48
6940.57
6673.1
6411.88
6157.65
5911.1
5672.88
5443.55
5223.64
5013.57
4813.74
4624.44
4445.92
4278.34
4121.81
3976.39
3842.04
3718.7
3606.24
3504.49
3413.24
3332.21
3261.13
3199.66
3147.46
3104.16
3069.37
3042.7
3023.72
3012.02
3007.19
3008.8
3016.44
3029.68
3048.12
3071.34
3098.97
3130.61
3165.87
3204.4
3245.83
3289.81
3336.01
3384.09
3433.74
3484.64
3536.5
3589.01
3641.91
3694.92
3747.76
3800.2
3851.98
3902.87
3952.65
4001.1
4048.02
4093.22
4136.51
4177.74
4216.73
4253.37
4287.5
4319.03
4347.84
4373.85
4396.98
4417.16
4434.32
4448.39
4459.26
4466.73
4470.47
4469.82
4463.49
4449.01
4421.6
4372.07
4282.86
4120.34
3820.22
3259.29
2202.19
403.002
1871.55
15000
15000
15000
15000
15000
15000
15000
15000
15000
15000
15000
15000
15000
15000
15000
15000
15000
15000
15000
15000
15000
15000
15000
15000
15000
14999.9
14999.9
14999.9
14999.9
14999.8
14999.8
14999.7
14999.6
14999.5
14999.4
14999.2
14999
14998.7
14998.4
14998
14997.5
14996.9
14996.1
14995.2
14994
14992.7
14991
14989
14986.7
14983.8
14980.5
14976.4
14971.7
14966.1
14959.6
14952
14943.1
14932.7
14920.8
14907
14891.1
14872.9
14852.2
14828.6
14801.8
14771.6
14737.5
14699.2
14656.4
14608.6
14555.5
14496.6
14431.6
14360
14281.5
14195.6
14102
14000.2
13890
13771
13643
13505.6
13358.7
13202.1
13035.8
12859.5
12673.5
12477.8
12272.4
12057.6
11833.8
11601.2
11360.3
11111.5
10855.5
10592.8
10324.2
10050.3
9772.03
9490.13
9205.49
8919.01
8631.6
8344.19
8057.73
7773.13
7491.32
7213.19
6939.63
6671.46
6409.49
6154.46
5907.07
5667.95
5437.7
5216.81
5005.73
4804.85
4614.46
4434.83
4266.11
4108.43
3961.82
3826.28
3701.73
3588.05
3485.08
3392.59
3310.34
3238.03
3175.35
3121.94
3077.45
3041.49
3013.65
2993.54
2980.74
2974.83
2975.39
2982.01
2994.27
3011.77
3034.1
3060.87
3091.69
3126.2
3164.01
3204.78
3248.16
3293.8
3341.39
3390.6
3441.11
3492.65
3544.9
3597.59
3650.44
3703.2
3755.6
3807.4
3858.36
3908.26
3956.88
4004.02
4049.47
4093.07
4134.63
4174
4211.03
4245.59
4277.56
4306.84
4333.33
4356.95
4377.63
4395.29
4409.87
4421.23
4429.21
4433.45
4433.3
4427.49
4413.56
4386.78
4338.05
4249.97
4089.22
3792.1
3236.61
2188.41
404.533
1843.83
15000
15000
15000
15000
15000
15000
15000
15000
15000
15000
15000
15000
15000
15000
15000
15000
15000
15000
15000
15000
15000
15000
15000
15000
15000
14999.9
14999.9
14999.9
14999.9
14999.8
14999.8
14999.7
14999.6
14999.5
14999.4
14999.2
14999
14998.7
14998.4
14998
14997.5
14996.9
14996.1
14995.2
14994.1
14992.7
14991.1
14989.1
14986.7
14983.9
14980.5
14976.5
14971.8
14966.2
14959.7
14952.1
14943.2
14932.9
14921
14907.2
14891.4
14873.3
14852.6
14829
14802.3
14772.1
14738.1
14699.9
14657.2
14609.5
14556.5
14497.7
14432.9
14361.4
14283
14197.3
14103.8
14002.2
13892.2
13773.3
13645.4
13508.2
13361.5
13205.1
13038.9
12862.8
12676.9
12481.3
12276.1
12061.4
11837.7
11605.1
11364.2
11115.5
10859.5
10596.7
10328
10054
9775.58
9493.47
9208.58
8921.79
8634.02
8346.21
8059.29
7774.17
7491.8
7213.05
6938.82
6669.92
6407.17
6151.32
5903.05
5663.01
5431.78
5209.87
4997.74
4795.77
4604.26
4423.47
4253.56
4094.67
3946.82
3810.03
3684.21
3569.26
3465
3371.23
3287.69
3214.09
3150.13
3095.45
3049.71
3012.5
2983.45
2962.14
2948.16
2941.11
2940.56
2946.1
2957.32
2973.81
2995.18
3021.04
3051
3084.69
3121.74
3161.79
3204.51
3249.56
3296.6
3345.33
3395.42
3446.59
3498.55
3551
3603.67
3656.31
3708.65
3760.45
3811.47
3861.48
3910.26
3957.61
4003.32
4047.21
4089.11
4128.86
4166.29
4201.29
4233.72
4263.48
4290.46
4314.59
4335.79
4353.97
4369.07
4380.96
4389.46
4394.22
4394.6
4389.33
4375.98
4349.87
4301.98
4215.08
4056.18
3762.32
3213.35
2180.25
405.751
1850.3
15000
15000
15000
15000
15000
15000
15000
15000
15000
15000
15000
15000
15000
15000
15000
15000
15000
15000
15000
15000
15000
15000
15000
15000
15000
14999.9
14999.9
14999.9
14999.9
14999.8
14999.8
14999.7
14999.6
14999.5
14999.4
14999.2
14999
14998.7
14998.4
14998
14997.5
14996.9
14996.1
14995.2
14994.1
14992.7
14991.1
14989.1
14986.8
14983.9
14980.6
14976.6
14971.9
14966.4
14959.9
14952.3
14943.4
14933.1
14921.2
14907.5
14891.7
14873.6
14853
14829.5
14802.8
14772.7
14738.8
14700.7
14658
14610.5
14557.6
14498.9
14434.2
14362.9
14284.6
14199
14105.7
14004.3
13894.4
13775.7
13648
13511
13364.4
13208.2
13042.2
12866.3
12680.6
12485.1
12280
12065.4
11841.8
11609.3
11368.5
11119.8
10863.7
10600.9
10332.1
10058
9779.4
9497.07
9211.92
8924.82
8636.69
8348.46
8061.07
7775.43
7492.47
7213.1
6938.17
6668.53
6404.98
6148.26
5899.09
5658.1
5425.86
5202.91
4989.69
4786.58
4593.91
4411.92
4240.78
4080.63
3931.51
3793.41
3666.28
3550
3444.41
3349.29
3264.4
3189.47
3124.17
3068.17
3021.1
2982.6
2952.27
2929.7
2914.49
2906.24
2904.51
2908.92
2919.04
2934.48
2954.83
2979.72
3008.76
3041.57
3077.8
3117.1
3159.11
3203.51
3249.97
3298.17
3347.8
3398.57
3450.19
3502.37
3554.83
3607.33
3659.58
3711.36
3762.42
3812.52
3861.45
3908.99
3954.95
3999.14
4041.38
4081.49
4119.34
4154.77
4187.67
4217.91
4245.41
4270.05
4291.78
4310.5
4326.14
4338.58
4347.62
4352.93
4353.85
4349.15
4336.41
4310.99
4263.98
4178.33
4021.4
3730.86
3187.89
2166.43
405.967
1839.53
15000
15000
15000
15000
15000
15000
15000
15000
15000
15000
15000
15000
15000
15000
15000
15000
15000
15000
15000
15000
15000
15000
15000
15000
15000
14999.9
14999.9
14999.9
14999.9
14999.8
14999.8
14999.7
14999.6
14999.5
14999.4
14999.2
14999
14998.7
14998.4
14998
14997.5
14996.9
14996.1
14995.2
14994.1
14992.8
14991.1
14989.2
14986.8
14984
14980.6
14976.7
14972
14966.5
14960
14952.4
14943.6
14933.3
14921.5
14907.8
14892
14874
14853.4
14830
14803.4
14773.4
14739.5
14701.5
14658.9
14611.5
14558.7
14500.2
14435.6
14364.4
14286.3
14200.9
14107.7
14006.5
13896.8
13778.3
13650.7
13513.9
13367.5
13211.5
13045.6
12869.9
12684.4
12489
12284.1
12069.7
11846.1
11613.7
11372.9
11124.2
10868.2
10605.4
10336.5
10062.3
9783.47
9500.93
9215.51
8928.1
8639.61
8350.96
8063.08
7776.92
7493.37
7213.34
6937.7
6667.3
6402.93
6145.35
5895.24
5653.27
5420.01
5195.98
4981.64
4777.38
4583.5
4400.28
4227.88
4066.43
3915.99
3776.55
3648.06
3530.41
3423.43
3326.93
3240.65
3164.32
3097.64
3040.26
2991.83
2951.98
2920.31
2896.43
2879.94
2870.43
2867.48
2870.69
2879.66
2893.98
2913.27
2937.13
2965.2
2997.09
3032.45
3070.93
3112.19
3155.9
3201.72
3249.35
3298.48
3348.81
3400.06
3451.93
3504.15
3556.47
3608.61
3660.34
3711.41
3761.58
3810.64
3858.37
3904.57
3949.04
3991.61
4032.09
4070.35
4106.22
4139.58
4170.32
4198.32
4223.5
4245.77
4265.04
4281.24
4294.23
4303.83
4309.7
4311.19
4307.08
4294.97
4270.27
4224.18
4139.85
3985.08
3698.6
3164.47
2165.68
409.744
1829.82
15000
15000
15000
15000
15000
15000
15000
15000
15000
15000
15000
15000
15000
15000
15000
15000
15000
15000
15000
15000
15000
15000
15000
15000
15000
14999.9
14999.9
14999.9
14999.9
14999.8
14999.8
14999.7
14999.6
14999.5
14999.4
14999.2
14999
14998.8
14998.4
14998
14997.5
14996.9
14996.2
14995.2
14994.1
14992.8
14991.2
14989.2
14986.8
14984
14980.7
14976.8
14972.1
14966.6
14960.1
14952.6
14943.8
14933.5
14921.7
14908.1
14892.4
14874.4
14853.9
14830.5
14804
14774
14740.3
14702.3
14659.9
14612.5
14559.9
14501.5
14437
14366
14288.1
14202.8
14109.8
14008.7
13899.2
13780.9
13653.6
13516.9
13370.8
13214.9
13049.3
12873.7
12688.4
12493.2
12288.4
12074.1
11850.7
11618.4
11377.6
11129
10872.9
10610.1
10341.1
10066.8
9787.8
9505.05
9219.37
8931.64
8642.78
8353.7
8065.35
7778.64
7494.49
7213.8
6937.45
6666.28
6401.07
6142.6
5891.55
5648.58
5414.28
5189.15
4973.67
4768.22
4573.12
4388.63
4214.94
4052.16
3900.37
3759.56
3629.68
3510.61
3402.22
3304.28
3216.58
3138.82
3070.7
3011.9
2962.06
2920.81
2887.76
2862.53
2844.7
2833.88
2829.66
2831.63
2839.39
2852.55
2870.72
2893.51
2920.55
2951.47
2985.92
3023.54
3063.99
3106.96
3152.11
3199.12
3247.71
3297.56
3348.39
3399.91
3451.86
3503.97
3555.97
3607.62
3658.68
3708.9
3758.07
3805.96
3852.38
3897.12
3940
3980.85
4019.5
4055.81
4089.64
4120.87
4149.39
4175.1
4197.92
4217.75
4234.51
4248.07
4258.24
4264.69
4266.76
4263.25
4251.79
4227.83
4182.68
4099.66
3946.9
3663.6
3133.48
2132.94
405.199
1824.79
15000
15000
15000
15000
15000
15000
15000
15000
15000
15000
15000
15000
15000
15000
15000
15000
15000
15000
15000
15000
15000
15000
15000
15000
15000
14999.9
14999.9
14999.9
14999.9
14999.8
14999.8
14999.7
14999.6
14999.5
14999.4
14999.2
14999
14998.8
14998.4
14998
14997.5
14996.9
14996.2
14995.3
14994.2
14992.8
14991.2
14989.2
14986.9
14984.1
14980.8
14976.8
14972.2
14966.7
14960.3
14952.7
14944
14933.8
14922
14908.4
14892.7
14874.8
14854.3
14831
14804.6
14774.7
14741
14703.2
14660.9
14613.7
14561.1
14502.9
14438.5
14367.7
14289.9
14204.8
14112
14011.1
13901.8
13783.7
13656.6
13520.1
13374.2
13218.5
13053
12877.7
12692.5
12497.5
12292.9
12078.7
11855.4
11623.2
11382.6
11133.9
10877.9
10615
10346
10071.5
9792.38
9509.42
9223.47
8935.43
8646.2
8356.7
8067.86
7780.61
7495.86
7214.51
6937.43
6665.47
6399.43
6140.05
5888.05
5644.07
5408.71
5182.47
4965.83
4759.17
4562.83
4377.06
4202.05
4037.92
3884.75
3742.54
3611.24
3490.74
3380.89
3281.5
3192.33
3113.1
3043.52
2983.26
2931.97
2889.28
2854.82
2828.18
2808.98
2796.81
2791.26
2791.95
2798.46
2810.41
2827.41
2849.08
2875.05
2904.95
2938.43
2975.15
3014.76
3056.94
3101.36
3147.72
3195.72
3245.04
3295.42
3346.57
3398.2
3450.06
3501.89
3553.43
3604.44
3654.69
3703.94
3751.98
3798.59
3843.59
3886.77
3927.97
3967.01
4003.75
4038.04
4069.76
4098.79
4125.03
4148.4
4168.79
4186.12
4200.25
4211.01
4218.04
4220.71
4217.81
4207.01
4183.8
4139.59
4057.83
3906.95
3626.57
3101.5
2111.1
399.222
1818.62
15000
15000
15000
15000
15000
15000
15000
15000
15000
15000
15000
15000
15000
15000
15000
15000
15000
15000
15000
15000
15000
15000
15000
15000
15000
14999.9
14999.9
14999.9
14999.9
14999.8
14999.8
14999.7
14999.6
14999.5
14999.4
14999.2
14999
14998.8
14998.4
14998
14997.5
14996.9
14996.2
14995.3
14994.2
14992.8
14991.2
14989.3
14986.9
14984.2
14980.9
14976.9
14972.3
14966.8
14960.4
14952.9
14944.2
14934
14922.3
14908.7
14893.1
14875.2
14854.8
14831.6
14805.2
14775.5
14741.9
14704.2
14661.9
14614.8
14562.4
14504.3
14440.1
14369.4
14291.8
14206.9
14114.3
14013.6
13904.5
13786.6
13659.7
13523.4
13377.7
13222.2
13057
12881.9
12696.9
12502
12297.5
12083.6
11860.4
11628.3
11387.7
11139.1
10883.1
10620.2
10351.1
10076.5
9797.2
9514.04
9227.83
8939.48
8649.88
8359.95
8070.63
7782.83
7497.48
7215.46
6937.66
6664.91
6398.02
6137.74
5884.78
5639.78
5403.34
5175.99
4958.18
4750.31
4552.71
4365.64
4189.29
4023.8
3869.24
3725.61
3592.86
3470.9
3359.58
3258.7
3168.04
3087.32
3016.25
2954.5
2901.73
2857.57
2821.65
2793.57
2772.96
2759.4
2752.5
2751.85
2757.08
2767.78
2783.57
2804.07
2828.93
2857.77
2890.24
2926
2964.72
3006.07
3049.73
3095.39
3142.75
3191.52
3241.4
3292.12
3343.4
3394.98
3446.6
3498
3548.94
3599.17
3648.48
3696.64
3743.43
3788.65
3832.12
3873.64
3913.06
3950.21
3984.95
4017.15
4046.69
4073.46
4097.37
4118.33
4136.23
4150.94
4162.28
4169.9
4173.17
4170.9
4160.76
4138.32
4095.03
4014.51
3865.39
3587.57
3066.06
2080.68
395.146
1797.21
15000
15000
15000
15000
15000
15000
15000
15000
15000
15000
15000
15000
15000
15000
15000
15000
15000
15000
15000
15000
15000
15000
15000
15000
15000
14999.9
14999.9
14999.9
14999.9
14999.8
14999.8
14999.7
14999.6
14999.5
14999.4
14999.2
14999
14998.8
14998.4
14998
14997.6
14996.9
14996.2
14995.3
14994.2
14992.9
14991.3
14989.3
14987
14984.2
14980.9
14977
14972.4
14967
14960.6
14953.1
14944.4
14934.3
14922.6
14909
14893.5
14875.7
14855.3
14832.2
14805.9
14776.2
14742.7
14705.1
14663
14616
14563.8
14505.8
14441.8