<?xml version="1.0"?>
<VTKFile type="PolyData" version="0.1" byte_order="LittleEndian">
  <PolyData>
    <Piece NumberOfPoints="50000" NumberOfVerts="50000" NumberOfLines="0" NumberOfStrips="0" NumberOfPolys="0">
      <Points>
        <DataArray type="Float32" NumberOfComponents="3" format="ascii">
0.456101 0.00922803 0
-0.433977 0.0029795 0
0.442098 -0.00348755 0
0.461606 -0.00291809 0
-0.377735 0.00685282 0
-0.317444 0.00214729 0
0.151735 -0.0300206 0
-0.390147 -0.000316538 0
0.133788 -0.0234761 0
-0.0312504 0.00994035 0
0.346829 -0.0148601 0
0.440196 0.00835978 0
-0.254538 0.00772311 0
-0.181025 -0.0282875 0
-0.474121 0.00229843 0
0.357644 0.0135313 0
-0.066602 -0.00279024 0
0.457897 0.00138075 0
0.173404 0.00122071 0
-0.434593 0.00393328 0
-0.455254 0.00601291 0
0.396873 0.00724698 0
-0.449452 0.00261123 0
0.446327 -0.000518064 0
0.284338 -0.0149551 0
0.332631 0.0143279 0
-0.445857 -0.00894301 0
0.458398 -0.00438062 0
-0.319423 0.0265488 0
-0.469102 0.0100962 0
-0.353327 0.0134869 0
-0.328643 -0.0192078 0
0.454008 0.000412233 0
0.457118 -0.00168865 0
0.0867729 0.00548436 0
0.464773 -0.00237005 0
0.140887 0.0013097 0
-0.465122 0.00262127 0
-0.435572 -0.00629292 0
-0.484045 -0.00315812 0
0.335309 0.0146028 0
0.354365 0.00660545 0
-0.444292 -0.00295411 0
0.45113 0.000305987 0
0.467614 0.00101618 0
-0.457562 0.00971699 0
0.444479 0.00515655 0
0.22789 -0.0175089 0
0.438877 -9.53881e-05 0
0.449309 -0.000287014 0
0.188371 0.0242227 0
-0.44852 -0.00143931 0
-0.312117 0.0105019 0
0.44344 0.00286365 0
-0.441629 0.00256696 0
-0.470814 0.00273888 0
0.456685 -0.0019319 0
0.184301 0.0129192 0
0.341621 0.0082492 0
0.47152 -0.00606076 0
0.385124 0.0050567 0
0.461532 0.00256675 0
0.101554 -0.0371442 0
0.471514 -0.0024633 0
-0.152481 0.0190494 0
-0.440254 0.00145142 0
0.448124 -0.00147013 0
0.460463 -0.00115731 0
0.476325 0.0042024 0
0.329644 0.000730347 0
-0.445543 0.00354676 0
0.447447 0.00385739 0
0.244201 0.00100627 0
0.249846 0.00743433 0
0.212975 0.00554254 0
-0.451963 -0.00301952 0
0.391428 0.013897 0
-0.429234 0.00476967 0
0.345154 0.00749264 0
-0.469805 0.0017105 0
-0.237272 -0.0387254 0
-0.4602 0.00487251 0
0.423003 0.00542985 0
-0.447283 0.000609 0
0.470938 -0.0058017 0
-0.448546 0.00364492 0
0.471778 -0.00569236 0
-0.202138 -0.00991879 0
-0.195627 0.0259448 0
-0.452274 -0.00822774 0
0.443386 0.0072048 0
-0.442426 -0.000834181 0
0.445731 -0.00239985 0
-0.305348 0.0220442 0
-0.0464503 -0.0250644 0
-0.398181 0.00583355 0
0.444771 0.00953169 0
-0.456209 0.00357169 0
-0.481207 0.00821677 0
-0.477357 -0.00129248 0
-0.400363 -0.00872441 0
-0.444065 -0.00652021 0
0.474923 -0.00106136 0
-0.192829 -0.0236051 0
0.478285 -0.000909328 0
0.391663 0.0140947 0
0.287881 0.00729571 0
0.0228191 0.00872235 0
0.439665 0.00483804 0
-0.450025 -0.00536707 0
-0.339747 0.0221124 0
-0.456648 0.00347043 0
-0.389911 0.0117833 0
338.286 489.349 0
0.299829 0.00806412 0
-0.45009 0.00392055 0
-0.466707 0.00489116 0
8.69395 11.8931 0
-0.453283 0.00175381 0
-0.0234776 -0.0100714 0
0.45857 -0.00190591 0
-0.437226 -0.00440479 0
0.309408 -0.00422123 0
-0.41826 0.00823847 0
0.450163 -0.00106182 0
0.437508 -0.00135575 0
0.14371 0.0268416 0
0.462535 0.00472604 0
-0.405682 -0.00794149 0
0.349035 -0.00128447 0
0.465077 -0.00387106 0
0.461384 -0.000747279 0
-0.479334 0.0007164 0
-0.399939 0.00442625 0
0.472447 -0.00232315 0
0.449032 -0.00144649 0
0.43308 -0.00343168 0
-0.0725647 0.00334997 0
0.362189 -0.0162473 0
0.352334 -0.0136887 0
0.362036 -0.0165051 0
0.429676 0.0106331 0
0.464083 -0.00411291 0
-0.108332 -0.0159923 0
-0.464629 0.00746825 0
0.308322 -0.0256732 0
-0.297906 0.0224628 0
-0.458386 0.002108 0
-0.328154 -0.0226604 0
-0.45981 0.00402086 0
0.350318 0.00811915 0
0.446012 0.00230027 0
-0.140033 -0.0135463 0
0.3633 -0.0118845 0
0.361288 0.00921756 0
0.442227 0.00412709 0
0.302886 -0.0111931 0
-0.450543 0.00299511 0
-0.194833 -0.00695808 0
0.462758 -0.000709674 0
0.309167 -0.00210981 0
-0.408861 -0.00352441 0
-0.442673 0.00269425 0
-0.460241 0.00276973 0
-0.119452 0.0110835 0
0.356524 -0.00740258 0
0.402997 -0.00657867 0
0.408243 0.00390955 0
0.341063 0.00867553 0
-0.189552 0.000443263 0
0.476656 -0.00582475 0
-0.441268 0.00334955 0
-0.10516 -0.00688651 0
0.460592 0.00462243 0
-0.0847113 -0.00413196 0
-0.356643 0.0175678 0
-0.442459 0.00264488 0
-0.269633 -0.012684 0
-0.448519 -0.00280677 0
-0.450455 -0.00762322 0
0.441632 -0.000387761 0
-0.455654 0.00708222 0
-0.448745 0.00594555 0
0.455892 0.00575521 0
0.444837 -0.00132235 0
0.344085 -0.0198351 0
0.477672 -0.00416454 0
0.472695 0.000201352 0
0.458258 -0.00447352 0
0.0509861 0.0332419 0
0.466087 -0.00443679 0
0.37752 -0.0105879 0
-0.304614 -0.0210008 0
0.420225 0.00699187 0
-0.41712 0.00699895 0
0.441524 0.00167982 0
-0.371776 0.0130661 0
-0.396048 0.0057921 0
-0.44436 0.00416552 0
0.447041 0.00529879 0
-0.297185 0.0212241 0
0.471493 0.00278519 0
0.408972 -0.00646378 0
-0.0937626 -0.00826649 0
0.477442 -0.00593966 0
-0.437848 -0.00924878 0
0.061966 0.0540008 0
0.189138 -0.00778919 0
-0.396731 0.0118998 0
-0.279769 -0.011746 0
0.437213 0.000360547 0
-0.195405 -0.0239988 0
0.412084 -0.00442676 0
-0.383435 0.0122561 0
-0.263141 -0.0181399 0
-0.460169 0.00666917 0
-0.454037 0.00851922 0
0.453179 -0.000628107 0
-0.466858 -0.00181574 0
-0.0552879 0.0235581 0
-0.359278 0.013061 0
-0.465847 0.00390258 0
-0.432698 -0.00747905 0
0.473465 -0.00364073 0
0.167643 0.0277232 0
-0.442717 0.00323069 0
0.476029 0.000993673 0
0.456562 -0.00124796 0
-0.393682 0.0108321 0
-0.463874 -0.000894446 0
-0.456491 -0.00456214 0
0.444089 0.00451594 0
0.23155 0.0264974 0
-0.0708965 0.0167562 0
-0.472526 0.00480016 0
-0.406964 0.00644716 0
0.349427 -0.0201415 0
-0.358361 -0.00530038 0
-0.45162 0.00354631 0
0.276621 -0.0035966 0
0.467264 -0.000338134 0
-0.414571 -0.00791605 0
-0.456759 0.00359467 0
-0.264642 -0.0161456 0
0.228115 0.00747709 0
0.408069 0.0044549 0
-0.431417 0.00774064 0
0.456956 -0.00124418 0
0.470608 0.00272246 0
0.269846 0.0139542 0
0.28145 0.00468751 0
-0.429585 0.00549823 0
0.441568 -0.0036234 0
-0.203649 -0.0109178 0
-0.415633 0.00898386 0
0.442171 -0.000617495 0
-0.402861 0.00875472 0
0.391529 0.00991427 0
0.169622 0.026273 0
0.244635 2.1253e-05 0
0.470348 0.000736647 0
-0.429426 0.00530245 0
0.0857203 -0.00962451 0
0.0427237 -0.0161128 0
-0.306475 0.00363069 0
-0.450909 0.000973783 0
-0.444126 0.00307739 0
-0.440933 -0.00181379 0
0.45292 -0.00146885 0
0.449499 -0.00121025 0
0.463003 -0.00138121 0
-0.454917 -0.00347589 0
0.297049 0.00320743 0
0.0243561 0.0139259 0
-0.475193 0.00547099 0
-0.462077 0.00235902 0
0.439892 -0.000749685 0
-0.441644 0.00317237 0
0.436948 0.00708686 0
-0.448004 -0.00188217 0
-0.434578 -0.000400967 0
-0.201563 -0.0262396 0
-0.45516 0.0025554 0
0.429547 -0.00277745 0
-0.387012 0.0119036 0
-0.435916 -0.00389232 0
-0.173267 0.0222789 0
-0.453782 0.00347344 0
-0.461022 0.00407388 0
0.387397 -0.00379724 0
-0.162121 0.00742903 0
0.452299 -0.00137242 0
0.462233 -0.00360366 0
0.294765 0.0154625 0
0.469629 0.00345647 0
0.445667 0.00671535 0
0.467837 0.00448255 0
-0.312288 0.0261474 0
-0.426301 0.00209382 0
-0.474032 0.000812163 0
0.479725 0.000730912 0
-0.0644757 0.00809556 0
0.45081 -0.00230786 0
0.439909 0.00341738 0
0.464239 -0.00115428 0
0.0793324 0.0135442 0
-0.239508 0.0280675 0
0.390977 0.00579881 0
-0.0551472 0.000192788 0
-0.222925 0.0103242 0
-0.372966 0.0128193 0
0.452066 0.00721079 0
-0.330279 0.0162011 0
0.418572 -0.00636851 0
0.344899 -0.00566131 0
-0.472402 0.00687667 0
0.368044 -0.0169318 0
0.474745 -0.00619881 0
0.424526 -0.00371117 0
0.453576 0.00806727 0
-0.460885 0.00585047 0
-0.101386 0.0167716 0
0.463021 0.00205237 0
0.460816 -0.00137546 0
0.212639 0.0277843 0
-0.439743 -0.000728105 0
-0.43154 0.00545925 0
0.474429 0.000255756 0
-0.441198 -0.00366138 0
0.457451 0.00250486 0
0.460758 -0.0030669 0
0.220662 -0.0267871 0
0.441485 0.00368702 0
-0.452687 0.00352806 0
-0.38743 -0.000932693 0
-0.260294 -0.0031126 0
0.036268 -0.00902969 0
0.0548162 -0.0335179 0
-0.415277 0.00358342 0
0.205259 -0.0297192 0
-0.048769 0.0456866 0
-0.467356 0.00666938 0
-0.334218 0.0151745 0
-0.456278 0.00481922 0
-0.189422 -0.0156118 0
0.46043 0.0074629 0
-0.324573 0.0170763 0
-0.461763 -0.000262613 0
-75.038 310.373 0
0.459453 -0.0062435 0
0.458292 -0.0015515 0
-0.376579 0.0157739 0
0.445484 0.00305737 0
0.42269 -0.00142679 0
-669.464 -1197.23 0
0.140417 0.016303 0
-0.45706 0.00400625 0
-0.380254 -0.00301889 0
0.455097 0.00371522 0
4.72363 -9.73181 0
0.430788 0.00537149 0
-0.447292 -0.00698191 0
-0.285847 6.89778e-05 0
-0.454251 -0.00389804 0
-0.463159 0.00742187 0
0.451667 -0.00142285 0
-0.47051 -0.001824 0
-0.407986 0.01015 0
0.354528 0.0139498 0
-0.443372 -0.000129786 0
-0.36967 0.0157902 0
-0.410014 0.00906741 0
0.456412 0.00449889 0
0.411511 -0.00815292 0
-0.273215 0.0213169 0
0.469139 -0.00262796 0
-0.457255 -0.0065659 0
-0.425584 -0.00431571 0
-0.462215 0.00124649 0
0.0397394 -0.0355161 0
-0.444977 -0.00621911 0
0.45003 0.00453254 0
-0.45365 0.00396836 0
-0.451115 0.00206884 0
-0.111476 0.0168845 0
0.294791 0.0152503 0
-0.147866 0.0410324 0
0.0968754 0.0231234 0
-0.457673 0.00424174 0
-0.0830568 0.00387735 0
-0.458477 -0.00126919 0
-0.460878 0.00603192 0
0.439913 -0.00686318 0
0.387661 0.0104193 0
-0.431294 0.00706171 0
0.408734 0.00524742 0
0.406131 0.00129357 0
-0.439818 0.00327625 0
-0.243035 -0.00821441 0
0.321333 -0.0197267 0
-0.440274 0.000777218 0
0.389123 -0.0103087 0
0.177992 -0.00565226 0
-0.452687 -0.00130057 0
0.422693 -0.000931115 0
0.444666 -0.00286691 0
0.451468 -0.00558626 0
0.459974 -0.00200643 0
0.467828 -0.000207071 0
0.443251 0.0075367 0
-0.455548 0.00296132 0
0.327238 0.010726 0
-0.376553 -0.00588184 0
0.214951 0.0300464 0
-0.428917 0.00291358 0
-0.153501 -0.00651381 0
-0.355878 0.0131135 0
0.129563 -0.0160613 0
-0.46504 0.00425171 0
0.443924 -0.00144698 0
-0.125639 0.0332749 0
0.158914 0.01741 0
-0.471303 0.00365891 0
0.447104 0.00188555 0
0.460943 -0.00100626 0
0.440415 0.00953639 0
0.470695 -0.00551945 0
-0.449357 0.00351616 0
-0.463566 0.00268393 0
[...]
      <PointData Scalars="T">
        <DataArray type="Float32" Name="T" format="ascii" NumberOfComponents="1">
317.104
453.79
316.148
316.148
453.79
453.79
316.148
467.748
316.148
453.79
316.148
317.104
453.79
467.748
453.79
317.104
467.748
308.401
305.392
453.79
453.79
317.104
453.79
316.148
316.148
317.104
467.748
316.148
453.79
453.79
453.79
467.748
312.101
316.148
317.104
316.148
305.601
453.79
467.748
467.748
317.104
317.104
467.748
317.835
302.307
453.79
317.104
316.148
316.148
316.148
317.104
467.748
453.79
317.104
453.79
453.79
316.148
317.104
317.104
316.148
317.104
317.104
316.148
316.148
453.79
948.842
316.148
316.148
317.104
304.914
453.79
317.104
302.836
317.104
317.104
467.748
317.104
453.79
317.104
845.376
467.748
453.79
317.104
833.438
316.148
453.79
316.148
467.748
453.79
467.748
317.104
467.748
316.148
453.79
467.748
453.79
317.104
453.79
453.79
467.748
467.748
467.748
316.148
467.748
316.148
317.104
317.104
317.104
317.104
467.748
453.79
453.79
453.79
317.104
317.104
453.79
453.79
317.104
858.679
467.748
316.148
467.748
316.148
453.79
316.148
316.148
317.104
317.104
467.748
316.148
316.148
316.148
1002.5
453.79
316.148
316.148
316.148
453.79
316.148
316.148
316.148
317.104
316.148
467.748
453.79
316.148
453.79
453.79
467.748
453.79
317.104
317.104
467.748
316.148
317.104
317.104
316.148
453.79
467.748
316.148
316.148
467.748
453.79
453.79
453.79
316.148
316.148
317.104
317.104
860.069
316.148
453.79
467.748
317.104
467.748
453.79
453.79
467.748
467.748
467.748
316.148
453.79
453.79
317.104
316.148
316.148
316.148
324.27
316.148
317.104
316.148
316.148
467.748
317.104
453.79
321.2
453.79
453.79
453.79
317.104
453.79
317.104
316.148
467.748
316.148
467.748
317.104
316.148
453.79
467.748
315.43
467.748
316.148
453.79
467.748
453.79
453.79
316.148
467.748
453.79
453.79
453.79
467.748
316.148
317.104
453.79
302.627
316.148
453.79
467.748
467.748
317.104
317.104
453.79
453.79
453.79
316.148
467.748
453.79
316.148
316.148
467.748
453.79
467.748
317.104
317.104
453.79
316.148
317.104
317.104
317.104
453.79
316.148
467.748
453.79
316.148
453.79
317.104
317.104
330.76
304.914
453.79
316.148
316.148
453.79
869.51
453.79
467.748
316.148
316.148
316.148
467.748
317.104
317.104
453.79
453.79
316.148
453.79
317.104
467.748
467.748
467.748
453.79
316.148
453.79
467.748
453.79
453.79
453.79
316.148
453.79
316.148
316.148
317.104
317.104
317.104
317.104
453.79
453.79
873.331
304.914
453.79
316.148
317.104
316.148
317.104
453.79
317.104
821.165
453.79
453.79
317.104
453.79
316.148
316.148
453.79
316.148
316.148
316.148
317.104
453.79
453.79
317.104
316.148
317.104
467.748
453.79
320.799
467.748
317.104
316.148
316.148
317.104
453.79
467.748
467.748
316.148
316.148
453.79
316.148
453.79
453.79
453.79
453.79
467.748
317.104
453.79
467.748
453.79
316.148
316.148
453.79
317.104
316.148
467.748
317.104
453.79
467.748
317.104
316.148
317.104
467.748
834.4
467.748
453.79
316.148
467.748
453.79
317.104
467.748
453.79
453.79
317.104
316.148
453.79
316.148
467.748
467.748
948.258
316.148
467.748
317.104
453.79
453.79
453.79
317.104
453.79
317.104
453.79
453.79
467.748
453.79
316.148
317.104
453.79
317.104
305.517
453.79
467.748
316.148
857.138
316.148
316.148
467.748
316.148
316.148
316.148
316.148
316.148
317.104
453.79
317.104
467.748
317.104
453.79
467.748
453.79
316.148
453.79
316.148
453.79
317.104
453.79
338.587
316.148
317.104
316.148
453.79
453.79
316.148
453.79
317.104
453.79
317.104
965.043
467.748
453.79
453.79
317.104
307.327
453.79
316.148
800.101
467.748
467.748
453.79
467.748
317.104
316.148
467.748
317.104
467.748
467.748
316.148
316.148
467.748
453.79
843.975
467.748
308.845
467.748
327.694
453.79
467.748
316.148
317.104
467.748
467.748
453.79
453.79
317.104
850.524
316.148
316.148
317.104
453.79
453.79
453.79
316.148
317.104
467.748
467.748
467.748
453.79
306.385
317.104
316.148
303.926
453.79
317.104
317.104
302.648
453.79
317.104
316.148
467.748
316.148
453.79
453.79
453.79
467.748
467.748
467.748
467.748
467.748
316.148
316.148
316.148
317.104
316.148
317.104
317.104
467.748
317.104
453.79
316.148
317.104
453.79
317.104
453.79
847.562
453.79
843.964
317.104
316.148
317.104
316.148
316.148
316.148
453.79
317.104
317.104
800.142
317.104
815.335
453.79
467.748
316.148
316.148
453.79
453.79
467.748
467.748
467.748
317.104
317.104
317.104
317.104
467.748
453.79
317.104
453.79
315.43
317.104
467.748
453.79
316.148
453.79
317.104
317.104
467.748
317.104
467.748
316.148
898.304
453.79
305.229
316.148
467.748
467.748
871.929
453.79
453.79
317.104
316.148
316.148
307.127
317.104
467.748
843.857
467.748
467.748
453.79
317.104
316.148
453.79
317.104
467.748
302.484
317.104
329.6
453.79
317.104
467.748
952.467
317.104
316.148
467.748
317.104
453.79
316.148
316.148
317.104
316.148
467.748
467.748
453.79
967.872
317.104
467.748
316.148
467.748
467.748
317.104
316.148
467.748
467.748
453.79
453.79
316.148
316.148
453.79
467.748
467.748
317.104
316.148
453.79
453.79
316.148
316.148
317.104
317.104
453.79
467.748
467.748
467.748
467.748
317.104
453.79
317.104
317.104
467.748
453.79
316.148
316.148
467.748
453.79
316.148
467.748
467.748
453.79
316.148
467.748
453.79
317.104
453.79
453.79
316.148
317.104
453.79
317.104
316.148
453.79
317.104
316.148
453.79
453.79
316.148
316.148
316.148
317.104
317.104
467.748
467.748
453.79
453.79
317.104
453.79
467.748
310.716
317.104
453.79
453.79
453.79
316.148
317.104
317.104
317.104
453.79
316.148
316.148
896.965
453.79
317.104
316.148
317.104
317.104
317.104
453.79
317.104
317.104
316.148
453.79
317.104
453.79
316.148
317.104
316.148
317.104
316.148
453.79
317.104
453.79
317.104
453.79
453.79
453.79
316.148
467.748
317.104
453.79
316.148
317.104
467.748
316.148
903.273
467.748
467.748
453.79
453.79
453.79
316.148
316.148
316.148
316.148
316.148
821.165
317.104
453.79
467.748
316.148
316.148
453.79
308.392
453.79
317.104
453.79
453.79
453.79
467.748
467.748
310.511
453.79
317.104
453.79
467.748
453.79
467.748
467.748
316.148
317.104
316.148
453.79
467.748
453.79
453.79
467.748
453.79
467.748
317.104
453.79
467.748
316.148
316.148
316.148
453.79
453.79
467.748
317.104
467.748
305.601
453.79
467.748
467.748
317.104
316.148
317.104
319.954
316.148
453.79
453.79
316.148
453.79
317.104
453.79
317.104
453.79
467.748
317.104
453.79
315.325
453.79
453.79
316.148
307.222
467.748
317.104
316.148
311.507
317.104
453.79
467.748
467.748
317.104
453.79
318.757
317.104
316.148
316.148
467.748
453.79
325.726
453.79
453.79
316.148
316.148
317.104
316.148
453.79
467.748
317.104
453.79
317.104
317.104
453.79
453.79
317.104
974.301
316.148
316.148
453.79
453.79
316.148
310.34
453.79
467.748
467.748
317.104
313.427
844.377
453.79
453.79
840.322
467.748
316.148
453.79
316.148
453.79
316.148
316.148
867.62
316.148
453.79
317.104
316.148
453.79
467.748
317.104
316.148
317.104
317.104
317.104
317.104
453.79
317.104
316.148
467.748
316.148
317.104
453.79
316.148
316.148
317.104
453.79
453.79
467.748
316.148
467.748
316.148
467.748
453.79
453.79
317.104
467.748
467.748
467.748
316.148
890.135
453.79
316.148
317.104
467.748
467.748
316.148
453.79
316.148
316.148
467.748
317.104
467.748
317.104
316.148
317.104
316.148
317.104
317.104
453.79
317.104
316.148
316.148
453.79
316.148
467.748
453.79
467.748
316.148
317.104
453.79
467.748
453.79
316.148
453.79
453.79
316.148
316.148
317.104
317.104
453.79
453.79
316.148
453.79
317.104
453.79
467.748
315.325
467.748
316.148
453.79
467.748
453.79
453.79
453.79
830.319
467.748
453.79
453.79
317.104
453.79
316.148
316.148
316.148
316.148
317.104
453.79
316.148
453.79
317.104
453.79
317.104
317.104
467.748
317.104
453.79
316.148
317.104
316.148
467.748
316.148
453.79
308.22
467.748
467.748
317.104
467.748
453.79
453.79
467.748
316.148
317.104
317.104
317.104
467.748
316.148
467.748
316.148
324.425
317.104
317.104
317.104
316.148
316.148
467.748
317.104
317.104
467.748
453.79
316.148
453.79
302.648
453.79
467.748
453.79
837.528
467.748
453.79
317.104
467.748
317.104
453.79
316.148
453.79
317.104
453.79
453.79
317.104
317.104
453.79
316.148
317.104
316.148
314.902
467.748
453.79
467.748
996.677
316.148
453.79
316.148
453.79
453.79
316.148
316.148
453.79
317.104
316.148
316.148
316.148
453.79
316.148
317.104
453.79
453.79
453.79
467.748
453.79
316.148
453.79
316.148
467.748
338.077
316.148
317.104
453.79
467.748
467.748
453.79
316.148
317.104
467.748
316.148
304.067
467.748
467.748
316.148
453.79
308.454
316.148
317.104
467.748
453.79
453.79
453.79
317.104
917.319
317.104
453.79
453.79
316.148
317.104
317.104
316.148
317.104
467.748
898.192
467.748
453.79
316.148
317.104
317.104
317.104
317.104
317.104
467.748
453.79
453.79
453.79
467.748
453.79
453.79
316.148
316.148
316.148
316.148
316.148
453.79
316.148
453.79
311.14
467.748
453.79
317.104
453.79
971.345
316.148
962.567
316.148
316.148
316.148
316.148
317.104
317.104
316.148
317.104
467.748
302.484
453.79
317.104
317.104
316.148
467.748
316.148
467.748
317.104
317.104
317.104
317.104
453.79
316.148
453.79
317.104
316.148
316.148
940.826
939.489
957.492
316.148
316.148
467.748
317.104
453.79
317.104
316.148
467.748
453.79
804.388
316.148
317.104
453.79
316.148
453.79
317.104
453.79
453.79
839.516
453.79
316.148
316.148
467.748
453.79
453.79
453.79
316.148
467.748
317.104
453.79
317.104
317.104
453.79
453.79
317.104
453.79
316.148
316.148
316.148
453.79
315.644
316.148
467.748
453.79
316.148
453.79
316.148
453.79
453.79
316.148
467.748
467.748
316.148
316.148
317.104
316.148
317.104
467.748
317.104
317.104
453.79
453.79
316.148
453.79
317.104
302.307
850.524
453.79
317.104
940.887
813.14
304.101
316.148
467.748
453.79
316.148
453.79
453.79
467.748
467.748
453.79
316.148
316.148
453.79
453.79
316.148
467.748
316.148
317.104
317.104
453.79
453.79
316.148
813.14
317.104
453.79
317.104
316.148
453.79
316.148
316.148
467.748
453.79
467.748
467.748
453.79
453.79
453.79
453.79
317.104
316.148
316.148
453.79
316.148
453.79
453.79
316.148
453.79
453.79
317.104
453.79
467.748
316.148
467.748
467.748
317.104
453.79
317.104
317.104
316.148
316.148
453.79
317.104
313.486
453.79
453.79
317.104
453.79
453.79
327.97
316.148
316.148
467.748
316.148
453.79
320.023
316.148
916.619
453.79
453.79
316.148
316.148
453.79
453.79
453.79
467.748
317.104
467.748
316.148
467.748
467.748
316.148
317.104
316.148
467.748
317.104
316.148
317.104
862.021
316.148
886.313
467.748
453.79
453.79
834.4
467.748
467.748
317.104
317.104
467.748
453.79
453.79
316.148
453.79
453.79
453.79
467.748
467.748
316.148
316.148
317.104
453.79
317.104
317.104
316.148
467.748
316.148
334.691
317.104
308.9
317.104
453.79
898.252
921.311
453.79
453.79
316.148
467.748
467.748
317.104
453.79
467.748
453.79
839.896
453.79
453.79
467.748
316.148
467.748
467.748
453.79
467.748
453.79
316.148
467.748
453.79
316.148
316.148
316.148
467.748
467.748
453.79
317.104
453.79
467.748
324.594
453.79
453.79
453.79
317.104
453.79
317.104
317.104
316.148
467.748
316.148
314.08
467.748
917.319
316.148
317.104
467.748
453.79
453.79
316.148
453.79
467.748
453.79
317.104
317.104
316.148
317.104
467.748
453.79
453.79
316.148
317.104
453.79
317.104
317.104
467.748
467.748
467.748
317.104
317.104
317.104
453.79
317.104
921.311
317.104
453.79
453.79
453.79
317.104
316.148
316.148
316.148
467.748
316.148
316.148
861.818
453.79
317.104
317.104
316.148
453.79
316.148
453.79
316.148
317.104
316.148
305.469
467.748
453.79
467.748
317.104
316.148
316.148
316.148
453.79
317.104
453.79
317.104
316.148
317.104
467.748
316.148
453.79
317.104
317.104
316.148
467.748
316.148
316.148
316.148
316.148
317.104
910.418
317.104
316.148
453.79
467.748
467.748
813.778
453.79
453.79
811.955
453.79
316.148
316.148
467.748
317.104
453.79
453.79
453.79
316.148
467.748
467.748
317.104
316.148
317.104
317.104
317.104
453.79
317.104
317.104
316.148
317.104
453.79
318.41
879.025
467.748
467.748
316.148
467.748
453.79
453.79
453.79
453.79
453.79
892.775
453.79
317.104
317.104
316.148
453.79
316.148
453.79
316.148
317.104
453.79
303.122
316.148
317.104
317.104
316.148
853.372
316.148
307.094
453.79
317.104
453.79
317.104
453.79
316.148
316.148
453.79
453.79
467.748
453.79
467.748
453.79
316.148
316.148
316.148
467.748
317.104
453.79
316.148
467.748
317.104
453.79
453.79
467.748
453.79
316.148
316.148
467.748
316.148
317.104
467.748
453.79
316.148
317.104
453.79
317.104
317.104
316.148
316.148
316.148
467.748
453.79
467.748
467.748
317.104
316.148
317.104
305.517
316.148
453.79
930.21
467.748
316.148
306.664
316.148
316.148
453.79
316.148
317.104
317.104
317.104
316.148
317.104
453.79
453.79
453.79
317.104
453.79
453.79
316.148
304.578
316.148
302.305
453.79
317.104
453.79
317.104
317.104
453.79
316.148
467.748
467.748
467.748
316.148
467.748
467.748
453.79
467.748
467.748
453.79
467.748
467.748
867.13
316.148
453.79
453.79
317.104
317.104
316.148
316.148
317.104
453.79
453.79
317.104
467.748
467.748
317.104
453.79
467.748
317.104
317.104
316.148
453.79
453.79
316.148
453.79
453.79
316.148
467.748
305.118
316.148
316.148
316.148
453.79
453.79
453.79
316.148
453.79
453.79
453.79
453.79
467.748
453.79
317.104
467.748
453.79
453.79
317.104
453.79
316.148
453.79
851.819
317.104
453.79
467.748
316.148
316.148
467.748
467.748
916.682
316.148
841.877
453.79
813.14
467.748
453.79
467.748
467.748
317.104
316.148
467.748
453.79
316.148
317.104
316.148
467.748
316.148
316.148
317.104
317.104
453.79
467.748
453.79
453.79
317.104
453.79
317.104
453.79
467.748
467.748
316.148
302.595
467.748
453.79
316.148
851.819
317.104
316.148
317.104
316.148
316.148
317.104
453.79
467.748
467.748
453.79
316.148
316.148
467.748
316.148
840.561
453.79
453.79
467.748
453.79
317.104
316.148
453.79
467.748
317.104
317.104
453.79
316.148
453.79
316.148
316.148
316.148
453.79
317.104
316.148
316.148
317.104
467.748
302.639
467.748
467.748
316.148
316.148
467.748
453.79
317.104
316.148
316.148
467.748
467.748
453.79
317.104
317.104
467.748
317.104
316.148
898.192
316.148
317.104
453.79
467.748
467.748
453.79
453.79
453.79
453.79
453.79
317.104
467.748
304.914
467.748
467.748
317.104
453.79
453.79
453.79
467.748
316.148
453.79
467.748
317.104
453.79
834.454
453.79
317.104
316.148
317.104
316.148
467.748
467.748
453.79
467.748
453.79
453.79
467.748
453.79
453.79
316.148
317.104
317.104
325.767
312.101
467.748
467.748
317.104
317.104
467.748
467.748
453.79
316.148
453.79
453.79
453.79
316.148
453.79
316.148
317.104
309.251
316.148
453.79
317.104
453.79
453.79
467.748
317.104
453.79
317.104
306.385
317.104
316.148
453.79
467.748
316.148
316.148
305.601
317.104
317.104
316.148
467.748
316.148
316.148
453.79
933.421
453.79
316.148
316.148
316.148
453.79
453.79
453.79
317.104
453.79
317.104
800.101
337.699
316.148
316.148
316.148
453.79
317.104
467.748
336.601
316.148
317.104
453.79
467.748
467.748
453.79
467.748
467.748
317.104
453.79
467.748
316.148
316.148
317.104
453.79
453.79
467.748
467.748
317.104
453.79
467.748
467.748
317.104
453.79
917.319
316.148
453.79
317.104
467.748
316.148
453.79
467.748
317.104
453.79
316.148
467.748
453.79
316.148
317.104
467.748
453.79
453.79
316.148
453.79
467.748
316.148
467.748
317.104
317.104
957.293
317.104
316.148
316.148
316.148
316.757
467.748
316.148
317.104
870.899
317.104
453.79
467.748
467.748
453.79
467.748
316.148
467.748
317.104
317.104
317.104
316.148
317.104
316.148
316.148
317.104
467.748
317.104
317.104
467.748
316.148
316.148
317.104
304.578
467.748
316.148
316.148
467.748
317.104
467.748
467.748
316.148
453.79
453.79
316.148
453.79
317.104
315.325
317.104
316.148
316.148
316.148
316.148
316.148
307.219
453.79
467.748
951.746
317.104
316.148
453.79
316.148
316.148
467.748
316.148
317.104
316.148
316.148
316.148
453.79
317.104
316.148
453.79
316.148
467.748
317.104
316.148
317.104
453.79
467.748
317.104
453.79
453.79
316.148
316.148
316.148
453.79
317.104
302.887
453.79
453.79
316.148
316.148
317.104
467.748
467.748
467.748
316.148
317.104
316.148
467.748
453.79
316.148
316.148
317.104
317.104
316.148
453.79
317.104
467.748
317.104
453.79
453.79
317.104
317.104
453.79
800.101
317.104
467.748
926.155
845.071
869.51
453.79
453.79
467.748
316.148
316.148
467.748
317.104
467.748
317.104
316.148
467.748
316.148
316.148
453.79
316.148
775.913
796.95
453.79
453.79
317.104
317.104
316.148
467.748
316.148
467.748
316.148
316.148
453.79
467.748
453.79
327.97
313.486
317.104
316.148
467.748
316.148
453.79
316.148
453.79
316.148
453.79
453.79
317.104
316.148
467.748
316.148
453.79
317.104
453.79
467.748
467.748
467.748
316.148
453.79
467.748
839.516
467.748
467.748
316.148
453.79
316.148
316.148
317.104
316.148
317.104
316.148
453.79
467.748
821.165
317.104
317.104
453.79
316.148
316.148
316.148
316.148
453.79
453.79
317.104
317.104
316.148
316.148
884.08
302.307
467.748
453.79
453.79
316.148
453.79
304.617
467.748
316.148
453.79
467.748
317.104
453.79
317.104
316.148
317.104
929.028
467.748
317.104
316.148
316.148
316.148
317.104
467.748
317.104
316.148
453.79
316.148
317.104
316.148
467.748
317.104
317.104
467.748
453.79
839.516
316.148
316.148
453.79
453.79
971.345
467.748
316.148
316.148
453.79
467.748
316.148
467.748
453.79
453.79
316.148
317.104
467.748
892.775
467.748
316.148
467.748
467.748
317.104
317.104
317.104
317.104
453.79
467.748
467.748
467.748
317.104
316.148
317.104
316.148
453.79
453.79
453.79
453.79
467.748
453.79
453.79
318.41
317.104
316.148
316.148
467.748
467.748
453.79
453.79
453.79
316.148
813.14
317.104
317.104
316.148
467.748
467.748
316.148
317.104
316.148
467.748
317.104
453.79
453.79
316.148
316.148
316.148
316.148
317.104
317.104
317.104
317.104
316.148
316.148
453.79
316.148
453.79
317.104
453.79
453.79
453.79
316.148
316.148
939.271
317.104
453.79
467.748
453.79
467.748
316.148
453.79
854.639
316.148
303.989
467.748
453.79
453.79
853.569
316.148
316.148
316.148
467.748
304.06
328.738
316.148
936.007
467.748
316.148
317.104
317.104
317.104
316.148
317.104
467.748
316.148
302.456
317.104
453.79
453.79
453.79
453.79
453.79
316.148
467.748
920.67
453.79
453.79
453.79
317.104
316.148
316.148
453.79
316.148
316.148
316.148
316.148
317.104
453.79
453.79
467.748
316.148
453.79
316.148
467.748
316.148
837.598
835.621
453.79
317.104
467.748
467.748
317.104
467.748
323.104
453.79
316.148
317.104
317.104
933.421
317.104
453.79
467.748
316.148
453.79
316.148
316.148
317.104
317.104
317.104
453.79
317.104
898.252
467.748
308.845
467.748
467.748
857.138
316.148
453.79
453.79
453.79
316.148
467.748
453.79
317.104
316.148
316.148
467.748
453.79
302.57
453.79
453.79
317.104
467.748
453.79
467.748
453.79
467.748
453.79
453.79
319.446
317.104
453.79
467.748
316.148
316.148
467.748
453.79
317.104
330.76
317.104
453.79
453.79
316.148
467.748
453.79
467.748
312.101
316.148
316.148
317.104
317.104
317.104
317.104
316.148
453.79
467.748
844.124
844.685
467.748
453.79
317.104
453.79
317.104
316.148
453.79
316.148
317.104
467.748
467.748
313.486
453.79
453.79
317.104
453.79
453.79
453.79
453.79
467.748
453.79
467.748
453.79
453.79
317.104
467.748
467.748
453.79
467.748
317.104
331.739
317.104
317.104
453.79
467.748
316.148
453.79
453.79
467.748
316.148
316.148
453.79
467.748
317.104
316.148
467.748
453.79
467.748
467.748
453.79
316.148
453.79
467.748
317.104
317.104
453.79
467.748
316.148
316.148
453.79
467.748
453.79
453.79
934.009
316.148
317.104
317.104
317.104
317.104
453.79
316.148
316.148
317.104
453.79
467.748
453.79
467.748
317.104
316.148
316.148
316.148
453.79
453.79
453.79
316.148
453.79
307.094
467.748
316.148
453.79
317.104
316.148
453.79
922.609
453.79
316.148
453.79
453.79
467.748
316.148
453.79
316.148
453.79
467.748
317.104
316.148
467.748
453.79
316.148
317.104
317.104
317.104
316.148
453.79
317.104
316.148
453.79
453.79
316.148
316.148
453.79
453.79
832.569
316.148
316.148
453.79
316.148
317.104
453.79
317.104
305.229
921.311
467.748
453.79
317.104
453.79
467.748
316.148
453.79
316.148
316.148
925.626
317.104
467.748
453.79
453.79
467.748
316.148
316.148
317.104
316.148
304.617
317.104
453.79
889.388
467.748
453.79
316.148
853.746
316.148
453.79
453.79
453.79
316.148
317.104
317.104
453.79
317.104
453.79