<?xml version="1.0"?>
<VTKFile type="ImageData" version="0.1" byte_order="LittleEndian">
  <ImageData Origin="0 0 0" Spacing="1e-05 1e-05 1e-05" WholeExtent="0 191 0 191 0 0">
    <Piece Extent="0 191 0 191 0 0">
      <CellData Scalars="T">
        <DataArray type="Float32" Name="T" format="ascii" NumberOfComponents="1">
693.91
15000
15000
15000
15000
15000
15000
15000
14999.9
14999.9
14999.9
14999.9
14999.8
14999.8
14999.7
14999.7
14999.6
14999.5
14999.5
14999.4
14999.3
14999.3
14999.2
14999.2
14999.1
14999.1
14999.1
14999.1
14999.1
14999.1
14999.1
14999.1
14999.1
14999.2
14999.2
14999.3
14999.3
14999.4
14999.4
14999.5
14999.5
14999.6
14999.6
14999.7
14999.7
14999.7
14999.8
14999.8
14999.8
14999.8
14999.8
14999.8
14999.8
14999.7
14999.7
14999.6
14999.6
14999.5
14999.4
14999.3
14999.1
14998.9
14998.7
14998.4
14998
14997.6
14997.1
14996.5
14995.8
14995
14994.1
14992.9
14991.6
14990
14988.2
14986
14983.5
14980.6
14977.3
14973.5
14969
14963.9
14958.1
14951.4
14943.8
14935.2
14925.4
14914.4
14901.9
14887.8
14872
14854.3
14834.5
14812.5
14788
14760.8
14730.7
14697.5
14660.9
14620.7
14576.6
14528.5
14475.9
14418.8
14356.7
14289.5
14216.9
14138.6
14054.5
13964.3
13867.7
13764.6
13654.9
13538.3
13414.7
13284
13146.1
13001
12848.7
12689.2
12522.5
12348.8
12168.1
11980.7
11786.7
11586.5
11380.2
11168.2
10950.9
10728.7
10502
10271.4
10037.1
9799.94
9560.29
9318.76
9075.93
8832.41
8588.79
8345.7
8103.73
7863.5
7625.62
7390.66
7159.22
6931.83
6709.05
6491.37
6279.29
6073.25
5873.67
5680.93
5495.39
5317.33
5147.05
4984.76
4830.65
4684.88
4547.55
4418.73
4298.45
4186.72
4083.5
3988.7
3902.23
3823.95
3753.69
3691.28
3636.5
3589.12
3548.88
3515.51
3488.74
3468.25
3453.75
3444.89
3441.32
3442.68
3448.52
3458.33
3471.41
3486.74
3502.71
3516.53
3523.26
3513.77
3470.92
3362.04
3123.56
2628.3
1608.06
336.36
2435
15000
15000
15000
15000
15000
15000
15000
14999.9
14999.9
14999.9
14999.8
14999.8
14999.7
14999.7
14999.6
14999.5
14999.5
14999.4
14999.3
14999.3
14999.2
14999.1
14999.1
14999
14999
14999
14999
14999
14999
14999
14999
14999.1
14999.1
14999.1
14999.2
14999.3
14999.3
14999.4
14999.4
14999.5
14999.5
14999.6
14999.6
14999.7
14999.7
14999.7
14999.8
14999.8
14999.8
14999.8
14999.8
14999.8
14999.7
14999.7
14999.6
14999.6
14999.5
14999.4
14999.3
14999.1
14998.9
14998.7
14998.4
14998
14997.6
14997.1
14996.5
14995.8
14995
14994.1
14992.9
14991.6
14990
14988.2
14986
14983.5
14980.6
14977.3
14973.5
14969
14963.9
14958.1
14951.4
14943.9
14935.2
14925.4
14914.4
14901.9
14887.8
14872
14854.3
14834.6
14812.5
14788
14760.8
14730.7
14697.5
14660.9
14620.7
14576.7
14528.5
14476
14418.8
14356.8
14289.6
14217
14138.7
14054.6
13964.4
13867.8
13764.8
13655
13538.4
13414.8
13284.1
13146.3
13001.2
12848.9
12689.4
12522.7
12349
12168.3
11980.9
11786.9
11586.6
11380.4
11168.4
10951.1
10728.9
10502.2
10271.5
10037.3
9800.05
9560.38
9318.83
9075.98
8832.43
8588.78
8345.66
8103.65
7863.39
7625.46
7390.46
7158.97
6931.54
6708.7
6490.98
6278.84
6072.74
5873.1
5680.29
5494.68
5316.56
5146.21
4983.85
4829.67
4683.82
4546.41
4417.52
4297.17
4185.36
4082.06
3987.18
3900.63
3822.27
3751.95
3689.46
3634.6
3587.14
3546.83
3513.39
3486.55
3465.99
3451.42
3442.49
3438.87
3440.16
3445.95
3455.71
3468.74
3484.03
3499.98
3513.84
3520.71
3511.64
3470.04
3364.9
3138.5
2685.74
1829.44
504.584
2478.01
15000
15000
15000
15000
15000
15000
14999.9
14999.9
14999.9
14999.9
14999.8
14999.8
14999.7
14999.6
14999.5
14999.5
14999.4
14999.3
14999.2
14999.1
14999
14999
14998.9
14998.9
14998.8
14998.8
14998.8
14998.8
14998.8
14998.8
14998.8
14998.9
14998.9
14999
14999.1
14999.1
14999.2
14999.3
14999.3
14999.4
14999.5
14999.5
14999.6
14999.6
14999.7
14999.7
14999.7
14999.8
14999.8
14999.8
14999.8
14999.8
14999.7
14999.7
14999.6
14999.6
14999.5
14999.4
14999.3
14999.1
14998.9
14998.7
14998.4
14998
14997.6
14997.1
14996.5
14995.8
14995
14994.1
14992.9
14991.6
14990
14988.2
14986
14983.5
14980.7
14977.3
14973.5
14969
14963.9
14958.1
14951.5
14943.9
14935.2
14925.5
14914.4
14901.9
14887.8
14872.1
14854.4
14834.6
14812.6
14788.1
14760.9
14730.8
14697.6
14661
14620.9
14576.8
14528.7
14476.1
14419
14356.9
14289.8
14217.2
14138.9
14054.8
13964.6
13868.1
13765
13655.3
13538.7
13415.1
13284.4
13146.6
13001.5
12849.2
12689.7
12523.1
12349.4
12168.7
11981.3
11787.3
11587
11380.7
11168.8
10951.4
10729.2
10502.5
10271.8
10037.5
9800.27
9560.57
9318.97
9076.07
8832.47
8588.77
8345.57
8103.5
7863.16
7625.15
7390.07
7158.48
6930.96
6708.02
6490.18
6277.93
6071.71
5871.95
5679.02
5493.28
5315.03
5144.53
4982.03
4827.71
4681.71
4544.16
4415.11
4294.61
4182.65
4079.19
3984.16
3897.45
3818.94
3748.46
3685.82
3630.81
3583.2
3542.74
3509.16
3482.18
3461.48
3446.78
3437.72
3433.97
3435.15
3440.82
3450.47
3463.41
3478.63
3494.54
3508.43
3515.5
3507.03
3466.99
3365.85
3149.43
2719.76
1903.5
508.833
2520.31
15000
15000
15000
15000
15000
15000
14999.9
14999.9
14999.9
14999.8
14999.8
14999.7
14999.6
14999.5
14999.4
14999.3
14999.2
14999.1
14999
14998.9
14998.8
14998.7
14998.7
14998.6
14998.5
14998.5
14998.5
14998.5
14998.5
14998.5
14998.6
14998.6
14998.7
14998.8
14998.9
14998.9
14999
14999.1
14999.2
14999.3
14999.3
14999.4
14999.5
14999.5
14999.6
14999.6
14999.7
14999.7
14999.7
14999.7
14999.7
14999.7
14999.7
14999.7
14999.6
14999.6
14999.5
14999.4
14999.2
14999.1
14998.9
14998.7
14998.4
14998
14997.6
14997.1
14996.5
14995.9
14995
14994.1
14992.9
14991.6
14990
14988.2
14986
14983.5
14980.7
14977.3
14973.5
14969.1
14964
14958.1
14951.5
14943.9
14935.3
14925.5
14914.4
14902
14887.9
14872.1
14854.4
14834.7
14812.7
14788.2
14761
14730.9
14697.7
14661.2
14621
14577
14528.9
14476.3
14419.2
14357.2
14290
14217.5
14139.3
14055.2
13965
13868.5
13765.4
13655.7
13539.1
13415.6
13284.9
13147.1
13002.1
12849.8
12690.3
12523.6
12349.9
12169.3
11981.8
11787.9
11587.6
11381.3
11169.3
10952
10729.7
10503
10272.2
10037.9
9800.61
9560.85
9319.19
9076.22
8832.53
8588.74
8345.45
8103.28
7862.83
7624.7
7389.48
7157.76
6930.09
6707
6489
6276.58
6070.19
5870.24
5677.13
5491.19
5312.74
5142.04
4979.32
4824.78
4678.57
4540.79
4411.52
4290.79
4178.6
4074.91
3979.65
3892.71
3813.97
3743.26
3680.39
3625.15
3577.32
3536.64
3502.85
3475.65
3454.76
3439.85
3430.6
3426.66
3427.66
3433.16
3442.66
3455.45
3470.55
3486.39
3500.29
3507.53
3499.61
3460.91
3362.75
3152.5
2733.92
1932.47
523.644
2470.6
15000
15000
15000
15000
15000
14999.9
14999.9
14999.9
14999.8
14999.8
14999.7
14999.6
14999.5
14999.4
14999.3
14999.2
14999
14998.9
14998.8
14998.7
14998.5
14998.4
14998.3
14998.2
14998.2
14998.1
14998.1
14998.1
14998.1
14998.2
14998.2
14998.3
14998.4
14998.5
14998.6
14998.7
14998.8
14998.9
14999
14999.1
14999.2
14999.3
14999.4
14999.4
14999.5
14999.6
14999.6
14999.7
14999.7
14999.7
14999.7
14999.7
14999.7
14999.7
14999.6
14999.6
14999.5
14999.4
14999.2
14999.1
14998.9
14998.7
14998.4
14998
14997.6
14997.1
14996.5
14995.9
14995
14994.1
14992.9
14991.6
14990
14988.2
14986
14983.6
14980.7
14977.3
14973.5
14969.1
14964
14958.2
14951.5
14943.9
14935.3
14925.6
14914.5
14902
14888
14872.2
14854.5
14834.8
14812.8
14788.3
14761.1
14731.1
14697.9
14661.4
14621.2
14577.2
14529.1
14476.6
14419.5
14357.5
14290.4
14217.8
14139.7
14055.6
13965.4
13869
13766
13656.3
13539.7
13416.2
13285.5
13147.7
13002.7
12850.5
12691
12524.4
12350.7
12170
11982.6
11788.6
11588.3
11382
11170
10952.7
10730.4
10503.6
10272.8
10038.4
9801.07
9561.22
9319.48
9076.42
8832.63
8588.72
8345.3
8102.99
7862.39
7624.1
7388.72
7156.81
6928.95
6705.65
6487.44
6274.8
6068.18
5867.99
5674.63
5488.43
5309.71
5138.74
4975.74
4820.92
4674.42
4536.34
4406.77
4285.74
4173.24
4069.25
3973.68
3886.44
3807.39
3736.37
3673.2
3617.67
3569.54
3528.57
3494.49
3467.01
3445.84
3430.67
3421.17
3416.98
3417.74
3423.02
3432.3
3444.9
3459.84
3475.55
3489.41
3496.78
3489.26
3451.51
3355.17
3147.68
2730.6
1915.77
518.895
2435
15000
15000
15000
15000
15000
14999.9
14999.9
14999.9
14999.8
14999.7
14999.6
14999.5
14999.4
14999.3
14999.1
14999
14998.8
14998.6
14998.5
14998.3
14998.2
14998
14997.9
14997.8
14997.7
14997.7
14997.7
14997.6
14997.7
14997.7
14997.8
14997.9
14998
14998.1
14998.2
14998.3
14998.5
14998.6
14998.7
14998.9
14999
14999.1
14999.2
14999.3
14999.4
14999.5
14999.5
14999.6
14999.6
14999.7
14999.7
14999.7
14999.7
14999.6
14999.6
14999.5
14999.5
14999.4
14999.2
14999.1
14998.9
14998.7
14998.4
14998
14997.6
14997.1
14996.5
14995.9
14995
14994.1
14992.9
14991.6
14990
14988.2
14986.1
14983.6
14980.7
14977.4
14973.5
14969.1
14964
14958.2
14951.6
14944
14935.4
14925.6
14914.6
14902.1
14888.1
14872.3
14854.7
14834.9
14812.9
14788.5
14761.3
14731.3
14698.1
14661.6
14621.5
14577.5
14529.4
14477
14419.9
14357.9
14290.8
14218.3
14140.2
14056.1
13966
13869.6
13766.6
13656.9
13540.4
13416.9
13286.3
13148.6
13003.6
12851.4
12691.9
12525.3
12351.6
12171
11983.6
11789.6
11589.3
11383
11170.9
10953.5
10731.2
10504.4
10273.5
10039.1
9801.64
9561.7
9319.85
9076.67
8832.75
8588.7
8345.13
8102.64
7861.86
7623.37
7387.78
7155.65
6927.54
6704
6485.53
6272.61
6065.7
5865.21
5671.54
5485.02
5305.97
5134.66
4971.32
4816.15
4669.28
4530.84
4400.9
4279.49
4166.62
4062.24
3966.3
3878.67
3799.24
3727.85
3664.3
3608.4
3559.9
3518.57
3484.14
3456.31
3434.8
3419.3
3409.48
3404.98
3405.45
3410.44
3419.46
3431.81
3446.54
3462.09
3475.85
3483.26
3476.03
3438.94
3343.87
3138.41
2724.42
1916.39
520.088
2435
15000
15000
15000
15000
14999.9
14999.9
14999.9
14999.8
14999.7
14999.7
14999.5
14999.4
14999.3
14999.1
14998.9
14998.7
14998.5
14998.3
14998.1
14997.9
14997.7
14997.6
14997.4
14997.3
14997.2
14997.1
14997.1
14997.1
14997.1
14997.2
14997.2
14997.3
14997.5
14997.6
14997.8
14997.9
14998.1
14998.3
14998.4
14998.6
14998.7
14998.9
14999
14999.1
14999.2
14999.3
14999.4
14999.5
14999.5
14999.6
14999.6
14999.6
14999.6
14999.6
14999.6
14999.5
14999.5
14999.4
14999.2
14999.1
14998.9
14998.7
14998.4
14998
14997.6
14997.1
14996.6
14995.9
14995
14994.1
14992.9
14991.6
14990
14988.2
14986.1
14983.6
14980.7
14977.4
14973.6
14969.1
14964.1
14958.3
14951.6
14944
14935.4
14925.7
14914.7
14902.2
14888.2
14872.4
14854.8
14835.1
14813.1
14788.7
14761.5
14731.5
14698.4
14661.9
14621.8
14577.9
14529.8
14477.4
14420.3
14358.4
14291.3
14218.9
14140.8
14056.8
13966.7
13870.3
13767.4
13657.8
13541.3
13417.8
13287.3
13149.5
13004.6
12852.4
12693
12526.4
12352.7
12172.1
11984.7
11790.7
11590.4
11384.1
11172
10954.6
10732.2
10505.3
10274.4
10039.9
9802.33
9562.29
9320.31
9076.99
8832.91
8588.69
8344.93
8102.25
7861.24
7622.52
7386.68
7154.28
6925.9
6702.06
6483.27
6270.03
6062.77
5861.93
5667.89
5481
5301.56
5129.84
4966.09
4810.49
4663.2
4524.33
4393.94
4272.09
4158.77
4053.94
3957.54
3869.47
3789.58
3717.74
3653.75
3597.4
3548.47
3506.71
3471.85
3443.61
3421.7
3405.8
3395.6
3390.73
3390.84
3395.5
3404.2
3416.26
3430.72
3446.05
3459.68
3467.07
3460.02
3423.5
3329.65
3126.71
2718.58
1928.61
527.365
2435
15000
15000
15000
15000
14999.9
14999.9
14999.8
14999.8
14999.7
14999.6
14999.5
14999.3
14999.1
14998.9
14998.7
14998.5
14998.2
14998
14997.7
14997.5
14997.2
14997
14996.8
14996.7
14996.5
14996.5
14996.4
14996.4
14996.4
14996.5
14996.6
14996.7
14996.9
14997.1
14997.2
14997.4
14997.6
14997.8
14998
14998.2
14998.4
14998.6
14998.8
14998.9
14999.1
14999.2
14999.3
14999.4
14999.5
14999.5
14999.6
14999.6
14999.6
14999.6
14999.6
14999.5
14999.4
14999.3
14999.2
14999.1
14998.9
14998.7
14998.4
14998
14997.6
14997.1
14996.6
14995.9
14995.1
14994.1
14993
14991.6
14990.1
14988.2
14986.1
14983.6
14980.7
14977.4
14973.6
14969.2
14964.1
14958.3
14951.7
14944.1
14935.5
14925.8
14914.8
14902.3
14888.3
14872.6
14855
14835.3
14813.3
14788.9
14761.8
14731.8
14698.7
14662.2
14622.2
14578.3
14530.2
14477.9
14420.9
14359
14291.9
14219.5
14141.5
14057.5
13967.5
13871.1
13768.3
13658.7
13542.3
13418.9
13288.4
13150.7
13005.8
12853.6
12694.2
12527.7
12354
12173.4
11986
11792
11591.7
11385.4
11173.3
10955.8
10733.4
10506.4
10275.4
10040.8
9803.15
9562.98
9320.86
9077.37
8833.12
8588.7
8344.73
8101.81
7860.56
7621.57
7385.44
7152.74
6924.02
6699.84
6480.7
6267.08
6059.43
5858.18
5663.71
5476.38
5296.49
5124.31
4960.09
4804.01
4656.22
4516.84
4385.95
4263.59
4149.75
4044.4
3947.48
3858.88
3778.47
3706.11
3641.6
3584.74
3535.31
3493.05
3457.7
3428.98
3406.6
3390.25
3379.6
3374.31
3374.01
3378.28
3386.6
3398.32
3412.47
3427.54
3440.97
3448.29
3441.37
3405.36
3312.72
3112.39
2709.53
1928.34
541.589
2435
15000
15000
15000
15000
14999.9
14999.9
14999.8
14999.7
14999.6
14999.5
14999.3
14999.2
14998.9
14998.7
14998.4
14998.2
14997.9
14997.6
14997.2
14996.9
14996.7
14996.4
14996.2
14996
14995.8
14995.7
14995.7
14995.7
14995.7
14995.8
14995.9
14996
14996.2
14996.4
14996.6
14996.9
14997.1
14997.4
14997.6
14997.9
14998.1
14998.3
14998.5
14998.7
14998.9
14999
14999.2
14999.3
14999.4
14999.4
14999.5
14999.5
14999.5
14999.5
14999.5
14999.5
14999.4
14999.3
14999.2
14999.1
14998.9
14998.6
14998.4
14998
14997.6
14997.1
14996.6
14995.9
14995.1
14994.1
14993
14991.6
14990.1
14988.2
14986.1
14983.6
14980.8
14977.5
14973.6
14969.2
14964.2
14958.4
14951.7
14944.2
14935.6
14925.9
14914.9
14902.4
14888.5
14872.7
14855.1
14835.5
14813.5
14789.1
14762.1
14732.1
14699.1
14662.6
14622.6
14578.7
14530.7
14478.4
14421.4
14359.6
14292.6
14220.3
14142.3
14058.4
13968.4
13872.1
13769.3
13659.8
13543.4
13420.1
13289.6
13152
13007.1
12855
12695.6
12529.1
12355.5
12174.9
11987.5
11793.5
11593.2
11386.8
11174.7
10957.2
10734.7
10507.7
10276.6
10041.9
9804.09
9563.78
9321.5
9077.83
8833.38
8588.74
8344.53
8101.35
7859.81
7620.52
7384.07
7151.02
6921.95
6697.38
6477.83
6263.78
6055.69
5853.98
5659.04
5471.21
5290.82
5118.12
4953.36
4796.73
4648.39
4508.45
4376.98
4254.04
4139.61
4033.68
3936.16
3846.97
3765.98
3693.03
3627.94
3570.5
3520.5
3477.67
3441.77
3412.51
3389.6
3372.74
3361.59
3355.81
3355.05
3358.87
3366.77
3378.09
3391.88
3406.64
3419.83
3427.02
3420.18
3384.59
3293.03
3095.01
2696.81
1924.73
545.809
2435
15000
15000
15000
15000
14999.9
14999.9
14999.8
14999.7
14999.6
14999.4
14999.2
14999
14998.8
14998.5
14998.2
14997.8
14997.5
14997.1
14996.8
14996.4
14996.1
14995.8
14995.5
14995.3
14995.1
14994.9
14994.9
14994.8
14994.9
14995
14995.1
14995.3
14995.5
14995.7
14996
14996.3
14996.6
14996.8
14997.1
14997.4
14997.7
14998
14998.2
14998.4
14998.6
14998.8
14999
14999.1
14999.2
14999.3
14999.4
14999.5
14999.5
14999.5
14999.5
14999.5
14999.4
14999.3
14999.2
14999.1
14998.9
14998.6
14998.4
14998
14997.6
14997.1
14996.6
14995.9
14995.1
14994.1
14993
14991.6
14990.1
14988.3
14986.1
14983.7
14980.8
14977.5
14973.7
14969.3
14964.2
14958.4
14951.8
14944.3
14935.7
14926
14915
14902.6
14888.6
14872.9
14855.3
14835.7
14813.8
14789.4
14762.4
14732.5
14699.4
14663.1
14623.1
14579.2
14531.3
14479
14422.1
14360.3
14293.4
14221.1
14143.2
14059.3
13969.4
13873.2
13770.4
13661
13544.7
13421.4
13291
13153.4
13008.6
12856.5
12697.2
12530.7
12357.1
12176.6
11989.2
11795.2
11594.9
11388.5
11176.3
10958.8
10736.2
10509.1
10277.9
10043.1
9805.17
9564.7
9322.24
9078.38
8833.7
8588.82
8344.34
8100.88
7859.03
7619.4
7382.59
7149.16
6919.68
6694.69
6474.69
6260.18
6051.6
5849.38
5653.91
5465.54
5284.58
5111.3
4945.95
4788.71
4639.76
4499.19
4367.09
4243.5
4128.43
4021.84
3923.67
3833.83
3752.18
3678.58
3612.84
3554.76
3504.12
3460.67
3424.16
3394.29
3370.8
3353.35
3341.65
3335.33
3334.05
3337.37
3344.8
3355.68
3369.06
3383.46
3396.37
3403.39
3396.55
3361.26
3270.45
3073.8
2677.14
1902.46
525.893
2435
15000
15000
15000
14999.9
14999.9
14999.8
14999.8
14999.7
14999.5
14999.3
14999.1
14998.9
14998.6
14998.3
14997.9
14997.5
14997.1
14996.7
14996.3
14995.8
14995.5
14995.1
14994.8
14994.5
14994.3
14994.1
14994
14994
14994
14994.1
14994.2
14994.4
14994.7
14995
14995.3
14995.6
14995.9
14996.3
14996.6
14997
14997.3
14997.6
14997.9
14998.2
14998.4
14998.6
14998.8
14999
14999.1
14999.2
14999.3
14999.4
14999.4
14999.5
14999.5
14999.4
14999.4
14999.3
14999.2
14999
14998.9
14998.6
14998.4
14998
14997.6
14997.1
14996.6
14995.9
14995.1
14994.1
14993
14991.7
14990.1
14988.3
14986.2
14983.7
14980.8
14977.5
14973.7
14969.3
14964.3
14958.5
14951.9
14944.4
14935.8
14926.1
14915.1
14902.7
14888.8
14873.1
14855.6
14836
14814.1
14789.7
14762.7
14732.9
14699.9
14663.5
14623.6
14579.8
14531.9
14479.7
14422.8
14361.1
14294.3
14222
14144.1
14060.4
13970.5
13874.4
13771.7
13662.3
13546.1
13422.9
13292.5
13155
13010.3
12858.2
12699
12532.5
12359
12178.4
11991.1
11797.1
11596.8
11390.3
11178.1
10960.5
10737.9
10510.7
10279.4
10044.4
9806.37
9565.73
9323.08
9079.01
8834.09
8588.95
8344.18
8100.4
7858.21
7618.22
7381.02
7147.18
6917.26
6691.8
6471.31
6256.29
6047.18
5844.4
5648.36
5459.39
5277.81
5103.91
4937.91
4780.02
4630.38
4489.13
4356.34
4232.05
4116.27
4008.97
3910.08
3819.52
3737.16
3662.84
3596.39
3537.61
3486.28
3442.14
3404.95
3374.43
3350.28
3332.21
3319.89
3312.98
3311.12
3313.9
3320.8
3331.19
3344.12
3358.12
3370.7
3377.5
3370.61
3335.48
3245.13
3049.07
2652.24
1874.21
517.934
2435
15000
15000
15000
14999.9
14999.9
14999.8
14999.7
14999.6
14999.5
14999.3
14999
14998.7
14998.4
14998
14997.6
14997.2
14996.7
14996.2
14995.8
14995.3
14994.8
14994.4
14994
14993.7
14993.5
14993.3
14993.1
14993.1
14993.1
14993.2
14993.4
14993.6
14993.9
14994.2
14994.5
14994.9
14995.3
14995.7
14996.1
14996.5
14996.8
14997.2
14997.5
14997.8
14998.1
14998.4
14998.6
14998.8
14999
14999.1
14999.2
14999.3
14999.4
14999.4
14999.4
14999.4
14999.4
14999.3
14999.2
14999
14998.9
14998.6
14998.4
14998
14997.6
14997.2
14996.6
14995.9
14995.1
14994.1
14993
14991.7
14990.1
14988.3
14986.2
14983.7
14980.9
14977.6
14973.8
14969.4
14964.4
14958.6
14952
14944.5
14935.9
14926.3
14915.3
14902.9
14889
14873.3
14855.8
14836.2
14814.4
14790.1
14763.1
14733.3
14700.3
14664
14624.1
14580.4
14532.6
14480.4
14423.6
14362
14295.2
14223
14145.2
14061.5
13971.8
13875.7
13773.1
13663.8
13547.6
13424.5
13294.2
13156.8
13012.1
12860.1
12700.9
12534.5
12361
12180.5
11993.1
11799.2
11598.8
11392.4
11180.1
10962.5
10739.8
10512.5
10281
10045.9
9807.72
9566.9
9324.04
9079.73
8834.56
8589.13
8344.06
8099.94
7857.39
7617
7379.38
7145.09
6914.7
6688.74
6467.73
6252.15
6042.47
5839.1
5642.43
5452.82
5270.58
5096
4929.3
4770.69
4620.33
4478.34
4344.8
4219.75
4103.21
3995.14
3895.48
3804.14
3721
3645.91
3578.7
3519.16
3467.07
3422.19
3384.27
3353.03
3328.18
3309.42
3296.43
3288.88
3286.4
3288.57
3294.91
3304.77
3317.2
3330.75
3342.96
3349.5
3342.5
3307.51
3217.64
3022.45
2626.85
1849.35
513.43
2435
15000
15000
15000
14999.9
14999.9
14999.8
14999.7
14999.6
14999.4
14999.2
14998.9
14998.6
14998.3
14997.8
14997.4
14996.9
14996.4
14995.8
14995.3
14994.8
14994.2
14993.8
14993.3
14993
14992.7
14992.4
14992.3
14992.2
14992.2
14992.3
14992.5
14992.7
14993
14993.4
14993.8
14994.2
14994.6
14995.1
14995.5
14996
14996.4
14996.8
14997.2
14997.5
14997.9
14998.1
14998.4
14998.6
14998.8
14999
14999.1
14999.2
14999.3
14999.4
14999.4
14999.4
14999.3
14999.3
14999.2
14999
14998.9
14998.6
14998.4
14998
14997.6
14997.2
14996.6
14995.9
14995.1
14994.1
14993
14991.7
14990.1
14988.3
14986.2
14983.8
14980.9
14977.6
14973.8
14969.5
14964.4
14958.7
14952.1
14944.6
14936.1
14926.4
14915.5
14903.1
14889.2
14873.6
14856.1
14836.5
14814.7
14790.5
14763.5
14733.7
14700.8
14664.6
14624.8
14581.1
14533.3
14481.2
14424.5
14362.9
14296.2
14224.1
14146.4
14062.8
13973.1
13877.1
13774.6
13665.3
13549.3
13426.2
13296
13158.6
13014
12862.1
12703
12536.6
12363.1
12182.7
11995.3
11801.4
11601
11394.5
11182.3
10964.6
10741.8
10514.4
10282.8
10047.6
9809.2
9568.19
9325.11
9080.56
8835.12
8589.39
8343.98
8099.5
7856.56
7615.76
7377.69
7142.93
6912.03
6685.54
6463.97
6247.8
6037.5
5833.5
5636.17
5445.87
5262.93
5087.62
4920.18
4760.81
4609.67
4466.89
4332.55
4206.69
4089.32
3980.43
3879.94
3787.78
3703.81
3627.89
3559.85
3499.5
3446.6
3400.92
3362.22
3330.2
3304.6
3285.1
3271.4
3263.15
3260
3261.53
3267.25
3276.53
3288.42
3301.49
3313.29
3319.53
3312.41
3277.61
3188.47
2995.21
2604.99
1845.82
514.245
2435
15000
15000
15000
14999.9
14999.9
14999.8
14999.7
14999.5
14999.4
14999.1
14998.8
14998.5
14998.1
14997.7
14997.2
14996.6
14996.1
14995.5
14994.9
14994.3
14993.7
14993.2
14992.7
14992.3
14991.9
14991.6
14991.5
14991.4
14991.4
14991.5
14991.6
14991.9
14992.2
14992.6
14993
14993.5
14994
14994.4
14994.9
14995.4
14995.9
14996.4
14996.8
14997.2
14997.6
14997.9
14998.2
14998.5
14998.7
14998.9
14999
14999.1
14999.2
14999.3
14999.3
14999.3
14999.3
14999.2
14999.1
14999
14998.8
14998.6
14998.4
14998
14997.6
14997.2
14996.6
14995.9
14995.1
14994.2
14993
14991.7
14990.2
14988.4
14986.3
14983.8
14981
14977.7
14973.9
14969.5
14964.5
14958.8
14952.2
14944.7
14936.2
14926.6
14915.6
14903.3
14889.4
14873.8
14856.4
14836.9
14815.1
14790.9
14764
14734.2
14701.4
14665.2
14625.4
14581.8
14534.1
14482.1
14425.4
14363.9
14297.3
14225.3
14147.6
14064.1
13974.5
13878.6
13776.2
13667
13551
13428.1
13298
13160.7
13016.1
12864.3
12705.2
12538.9
12365.5
12185
11997.7
11803.8
11603.4
11396.9
11184.6
10966.8
10744
10516.5
10284.8
10049.4
9810.83
9569.61
9326.31
9081.49
8835.76
8589.72
8343.96
8099.1
7855.75
7614.51
7375.97
7140.7
6909.28
6682.22
6460.06
6243.28
6032.33
5827.64
5629.61
5438.59
5254.9
5078.83
4910.6
4750.42
4598.46
4454.85
4319.65
4192.94
4074.7
3964.93
3863.57
3770.52
3685.67
3608.88
3539.97
3478.74
3424.98
3378.46
3338.91
3306.08
3279.67
3259.39
3244.92
3235.93
3232.06
3232.9
3237.96
3246.61
3257.93
3270.48
3281.84
3287.75
3280.52
3245.98
3157.81
2967.04
2582.46
1836.03
516.013
2435
15000
15000
15000
14999.9
14999.9
14999.8
14999.7
14999.5
14999.3
14999.1
14998.8
14998.4
14998
14997.5
14997
14996.4
14995.8
14995.2
14994.5
14993.9
14993.2
14992.6
14992.1
14991.6
14991.2
14990.9
14990.7
14990.6
14990.6
14990.7
14990.9
14991.1
14991.4
14991.8
14992.3
14992.8
14993.3
14993.9
14994.4
14994.9
14995.5
14996
14996.4
14996.9
14997.3
14997.7
14998
14998.3
14998.5
14998.7
14998.9
14999.1
14999.2
14999.2
14999.3
14999.3
14999.3
14999.2
14999.1
14999
14998.8
14998.6
14998.4
14998
14997.6
14997.2
14996.6
14995.9
14995.1
14994.2
14993.1
14991.7
14990.2
14988.4
14986.3
14983.9
14981
14977.7
14974
14969.6
14964.6
14958.9
14952.3
14944.9
14936.4
14926.7
14915.8
14903.5
14889.7
14874.1
14856.7
14837.2
14815.5
14791.3
14764.5
14734.8
14702
14665.8
14626.1
14582.6
14534.9
14483
14426.4
14365
14298.4
14226.5
14148.9
14065.5
13976
13880.2
13777.9
13668.8
13552.9
13430
13300
13162.8
13018.4
12866.6
12707.6
12541.4
12368
12187.6
12000.3
11806.3
11606
11399.4
11187.1
10969.2
10746.3
10518.7
10286.9
10051.4
9812.6
9571.17
9327.62
9082.54
8836.51
8590.13
8344.01
8098.76
7854.98
7613.28
7374.24
7138.45
6906.46
6678.82
6456.04
6238.6
6026.97
5821.58
5622.82
5431.04
5246.56
5069.68
4900.62
4739.6
4586.78
4442.28
4306.19
4178.57
4059.43
3948.74
3846.45
3752.47
3666.7
3588.97
3519.14
3457
3402.33
3354.91
3314.48
3280.78
3253.52
3232.41
3217.13
3207.35
3202.72
3202.82
3207.19
3215.18
3225.88
3237.86
3248.75
3254.32
3246.97
3212.71
3125.63
2937.51
2558.59
1821.27
519.89
2435
15000
15000
15000
14999.9
14999.9
14999.8
14999.7
14999.5
14999.3
14999
14998.7
14998.4
14997.9
14997.4
14996.9
14996.3
14995.6
14994.9
14994.2
14993.5
14992.9
14992.2
14991.6
14991.1
14990.7
14990.3
14990.1
14989.9
14989.9
14990
14990.2
14990.4
14990.8
14991.2
14991.7
14992.2
14992.7
14993.3
14993.9
14994.5
14995
14995.6
14996.1
14996.6
14997
14997.4
14997.8
14998.1
14998.4
14998.6
14998.8
14999
14999.1
14999.2
14999.2
14999.3
14999.2
14999.2
14999.1
14999
14998.8
14998.6
14998.4
14998
14997.6
14997.2
14996.6
14995.9
14995.1
14994.2
14993.1
14991.8
14990.2
14988.4
14986.3
14983.9
14981.1
14977.8
14974
14969.7
14964.7
14959
14952.4
14945
14936.5
14926.9
14916
14903.8
14889.9
14874.4
14857
14837.6
14815.9
14791.7
14765
14735.3
14702.6
14666.5
14626.8
14583.4
14535.8
14483.9
14427.4
14366.1
14299.6
14227.8
14150.3
14067
13977.6
13881.9
13779.7
13670.7
13554.9
13432.1
13302.2
13165.1
13020.7
12869.1
12710.1
12543.9
12370.6
12190.2
12003
11809.1
11608.7
11402.1
11189.7
10971.8
10748.8
10521.1
10289.2
10053.5
9814.51
9572.86
9329.07
9083.71
8837.37
8590.64
8344.14
8098.48
7854.26
7612.07
7372.52
7136.19
6903.62
6675.36
6451.93
6233.82
6021.48
5815.35
5615.82
5423.25
5237.96
5060.23
4890.31
4728.4
4574.68
4429.26
4292.25
4163.68
4043.58
3931.93
3828.67
3733.73
3646.98
3568.29
3497.49
3434.38
3378.77
3330.41
3289.05
3254.44
3226.28
3204.29
3188.16
3177.55
3172.11
3171.45
3175.07
3182.36
3192.4
3203.8
3214.18
3219.38
3211.9
3177.92
3091.86
2906.13
2531.76
1802.12
516.946
2435
15000
15000
15000
14999.9
14999.9
14999.8
14999.7
14999.5
14999.3
14999
14998.7
14998.3
14997.9
14997.4
14996.8
14996.2
14995.5
14994.8
14994.1
14993.3
14992.6
14991.9
14991.3
14990.7
14990.3
14989.9
14989.6
14989.4
14989.4
14989.4
14989.6
14989.8
14990.2
14990.6
14991.1
14991.6
14992.2
14992.8
14993.4
14994.1
14994.7
14995.2
14995.8
14996.3
14996.8
14997.2
14997.6
14998
14998.3
14998.5
14998.7
14998.9
14999
14999.1
14999.2
14999.2
14999.2
14999.2
14999.1
14999
14998.8
14998.6
14998.4
14998
14997.7
14997.2
14996.6
14995.9
14995.1
14994.2
14993.1
14991.8
14990.3
14988.5
14986.4
14983.9
14981.1
14977.9
14974.1
14969.8
14964.8
14959.1
14952.6
14945.1
14936.7
14927.1
14916.3
14904
14890.2
14874.7
14857.4
14837.9
14816.3
14792.2
14765.5
14735.9
14703.2
14667.2
14627.6
14584.2
14536.8
14484.9
14428.5
14367.3
14300.9
14229.2
14151.8
14068.6
13979.3
13883.7
13781.6
13672.7
13557
13434.4
13304.5
13167.5
13023.2
12871.7
12712.8
12546.7
12373.4
12193.1
12005.9
11811.9
11611.6
11405
11192.6
10974.6
10751.5
10523.7
10291.6
10055.7
9816.57
9574.7
9330.65
9085
8838.33
8591.25
8344.37
8098.28
7853.59
7610.92
7370.83
7133.93
6900.76
6671.87
6447.77
6228.96
6015.89
5808.99
5608.67
5415.28
5229.14
5050.54
4879.72
4716.9
4562.24
4415.87
4277.89
4148.34
4027.25
3914.6
3810.34
3714.38
3626.62
3546.92
3475.12
3411.01
3354.41
3305.07
3262.74
3227.17
3198.08
3175.18
3158.15
3146.67
3140.4
3138.92
3141.77
3148.31
3157.67
3168.44
3178.28
3183.09
3175.45
3141.71
3056.65
2873.29
2504.27
1788.15
518.941
2435
15000
15000
15000
14999.9
14999.9
14999.8
14999.7
14999.5
14999.3
14999
14998.7
14998.3
14997.9
14997.4
14996.8
14996.1
14995.4
14994.7
14994
14993.2
14992.5
14991.8
14991.1
14990.5
14990
14989.6
14989.3
14989.1
14989
14989
14989.1
14989.4
14989.7
14990.2
14990.7
14991.2
14991.8
14992.4
14993.1
14993.7
14994.3
14995
14995.5
14996.1
14996.6
14997
14997.5
14997.8
14998.1
14998.4
14998.6
14998.8
14999
14999.1
14999.2
14999.2
14999.2
14999.2
14999.1
14999
14998.8
14998.6
14998.4
14998
14997.7
14997.2
14996.6
14996
14995.2
14994.2
14993.1
14991.8
14990.3
14988.5
14986.4
14984
14981.2
14977.9
14974.2
14969.9
14964.9
14959.2
14952.7
14945.3
14936.9
14927.3
14916.5
14904.3
14890.5
14875
14857.7
14838.3
14816.7
14792.7
14766
14736.5
14703.9
14668
14628.4
14585.1
14537.7
14486
14429.7
14368.5
14302.3
14230.6
14153.4
14070.3
13981.1
13885.6
13783.6
13674.8
13559.3
13436.7
13307
13170.1
13025.9
12874.4
12715.6
12549.6
12376.3
12196.1
12008.9
11815
11614.6
11408
11195.5
10977.5
10754.3
10526.4
10294.1
10058.1
9818.77
9576.67
9332.36
9086.41
8839.42
8591.97
8344.68
8098.16
7853
7609.82
7369.19
7131.7
6897.92
6668.37
6443.58
6224.05
6010.23
5802.55
5601.4
5407.17
5220.15
5040.65
4868.92
4705.15
4549.53
4402.18
4263.19
4132.63
4010.52
3896.83
3791.53
3694.54
3605.73
3524.99
3452.14
3387
3329.37
3279.01
3235.68
3199.12
3169.06
3145.2
3127.25
3114.87
3107.71
3105.39
3107.42
3113.2
3121.83
3131.94
3141.22
3145.61
3137.77
3104.24
3019.98
2838.28
2471.1
1749.3
505.647
2435
15000
15000
15000
14999.9
14999.9
14999.8
14999.7
14999.5
14999.3
14999.1
14998.7
14998.4
14997.9
14997.4
14996.8
14996.2
14995.5
14994.7
14994
14993.2
14992.5
14991.7
14991
14990.4
14989.9
14989.4
14989.1
14988.9
14988.7
14988.8
14988.9
14989.1
14989.4
14989.9
14990.3
14990.9
14991.5
14992.1
14992.8
14993.5
14994.1
14994.7
14995.3
14995.9
14996.4
14996.9
14997.3
14997.7
14998
14998.3
14998.6
14998.8
14998.9
14999.1
14999.1
14999.2
14999.2
14999.2
14999.1
14999
14998.8
14998.6
14998.4
14998
14997.7
14997.2
14996.6
14996
14995.2
14994.2
14993.1
14991.8
14990.3
14988.5
14986.5
14984
14981.2
14978
14974.3
14970
14965
14959.3
14952.8
14945.5
14937
14927.5
14916.7
14904.5
14890.8
14875.4
14858.1
14838.8
14817.2
14793.2
14766.6
14737.2
14704.6
14668.7
14629.3
14586.1
14538.7
14487.1
14430.9
14369.8
14303.7
14232.1
14155
14072
13982.9
13887.5
13785.6
13677
13561.6
13439.1
13309.5
13172.7
13028.6
12877.2
12718.5
12552.6
12379.4
12199.2
12012
11818.1
11617.8
11411.2
11198.6
10980.6
10757.3
10529.2
10296.9
10060.6
9821.11
9578.78
9334.2
9087.95
8840.62
8592.8
8345.11
8098.14
7852.5
7608.79
7367.6
7129.52
6895.1
6664.89
6439.4
6219.12
6004.53
5796.04
5594.07
5398.96
5211.05
5030.63
4857.95
4693.21
4536.6
4388.24
4248.23
4116.64
3993.47
3878.73
3772.36
3674.29
3584.41
3502.59
3428.67
3362.46
3303.77
3252.36
3208
3170.42
3139.35
3114.51
3095.59
3082.27
3074.21
3071
3072.19
3077.16
3085.04
3094.47
3103.15
3107.1
3099.06
3065.73
2982.37
2802.72
2439.89
1730.83
504.173
2469.43
15000
15000
15000
14999.9
14999.9
14999.8
14999.7
14999.5
14999.3
14999.1
14998.8
14998.4
14998
14997.5
14996.9
14996.3
14995.6
14994.9
14994.1
14993.3
14992.6
14991.8
14991.1
14990.5
14989.9
14989.5
14989.1
14988.8
14988.7
14988.7
14988.8
14989
14989.3
14989.7
14990.2
14990.7
14991.3
14992
14992.6
14993.3
14993.9
14994.6
14995.2
14995.8
14996.3
14996.8
14997.2
14997.6
14998
14998.3
14998.5
14998.7
14998.9
14999
14999.1
14999.2
14999.2
14999.1
14999.1
14999
14998.8
14998.6
14998.4
14998.1
14997.7
14997.2
14996.6
14996
14995.2
14994.3
14993.2
14991.9
14990.4
14988.6
14986.5
14984.1
14981.3
14978.1
14974.3
14970
14965.1
14959.5
14953
14945.6
14937.2
14927.7
14917
14904.8
14891.1
14875.7
14858.5
14839.2
14817.7
14793.8
14767.2
14737.8
14705.3
14669.5
14630.2
14587
14539.8
14488.3
14432.2
14371.2
14305.1
14233.7
14156.7
14073.8
13984.8
13889.6
13787.8
13679.3
13564
13441.6
13312.2
13175.5
13031.5
12880.2
12721.6
12555.7
12382.6
12202.4
12015.3
11821.5
11621.1
11414.5
11201.9
10983.8
10760.4
10532.2
10299.7
10063.3
9823.59
9581.02
9336.17
9089.62
8841.94
8593.75
8345.64
8098.21
7852.08
7607.84
7366.09
7127.4
6892.34
6661.45
6435.24
6214.21
5998.83
5789.52
5586.69
5390.7
5201.88
5020.52
4846.88
4681.15
4523.53
4374.14
4233.08
4100.42
3976.18
3860.35
3752.89
3653.72
3562.75
3479.83
3404.81
3337.51
3277.73
3225.24
3179.81
3141.18