<?xml version="1.0"?>
<VTKFile type="ImageData" version="0.1" byte_order="LittleEndian">
  <ImageData Origin="0 0 0" Spacing="1e-05 1e-05 1e-05" WholeExtent="0 191 0 191 0 0">
    <Piece Extent="0 191 0 191 0 0">
      <CellData Scalars="T">
        <DataArray type="Float32" Name="T" format="ascii" NumberOfComponents="1">
520.58
15000
15000
15000
15000
15000
15000
15000
15000
15000
15000
15000
14999.9
14999.9
14999.9
14999.8
14999.8
14999.7
14999.5
14999.4
14999.2
14998.9
14998.5
14998
14997.4
14996.6
14995.6
14994.3
14992.7
14990.7
14988.2
14985.1
14981.3
14976.6
14970.9
14964
14955.7
14945.7
14933.8
14919.6
14902.8
14883.1
14860
14833
14801.8
14765.7
14724.3
14676.8
14622.8
14561.6
14492.6
14415.1
14328.4
14232
14125.2
14007.3
13878
13736.6
13582.8
13416.2
13236.4
13043.4
12837.1
12617.5
12384.8
12139.2
11881.2
11611.4
11330.4
11039
10738.2
10428.9
10112.4
9789.87
9462.6
9131.98
8799.44
8466.42
8134.4
7804.84
7479.17
7158.79
6845.04
6539.2
6242.46
5955.9
5680.5
5417.15
5166.59
4929.44
4706.2
4497.26
4302.86
4123.14
3958.11
3807.71
3671.73
3549.92
3441.93
3347.34
3265.66
3196.4
3138.97
3092.81
3057.29
3031.81
3015.74
3008.47
3009.4
3017.91
3033.45
3055.44
3083.36
3116.69
3154.94
3197.64
3244.34
3294.63
3348.1
3404.36
3463.04
3523.78
3586.24
3650.08
3714.99
3780.65
3846.75
3912.99
3979.07
4044.72
4109.65
4173.58
4236.25
4297.41
4356.82
4414.23
4469.43
4522.22
4572.39
4619.79
4664.24
4705.61
4743.78
4778.65
4810.14
4838.18
4862.73
4883.76
4901.26
4915.23
4925.7
4932.7
4936.27
4936.48
4933.4
4927.09
4917.65
4905.17
4889.76
4871.51
4850.55
4826.99
4800.97
4772.63
4742.11
4709.57
4675.17
4639.08
4601.49
4562.6
4522.6
4481.71
4440.15
4398.15
4355.94
4313.74
4271.76
4230.21
4189.23
4148.87
4109.02
4069.23
4028.45
3984.48
3932.91
3865.07
3764.14
3597.27
3299.68
2740.78
1645.5
320.207
1130.94
15000
15000
15000
15000
15000
15000
15000
15000
15000
15000
15000
14999.9
14999.9
14999.9
14999.8
14999.8
14999.7
14999.5
14999.4
14999.2
14998.9
14998.5
14998
14997.4
14996.6
14995.6
14994.3
14992.7
14990.7
14988.2
14985.1
14981.3
14976.6
14970.9
14964
14955.7
14945.7
14933.8
14919.6
14902.8
14883.1
14860
14833.1
14801.8
14765.8
14724.3
14676.9
14622.9
14561.8
14492.7
14415.2
14328.6
14232.2
14125.4
14007.6
13878.3
13736.9
13583.1
13416.5
13236.8
13043.8
12837.5
12617.9
12385.2
12139.7
11881.7
11611.9
11330.9
11039.5
10738.7
10429.5
10112.9
9790.36
9463.06
9132.41
8799.82
8466.76
8134.68
7805.05
7479.3
7158.84
6845
6539.07
6242.21
5955.54
5680.02
5416.54
5165.84
4928.55
4705.17
4496.08
4301.53
4121.66
3956.48
3805.92
3669.79
3547.82
3439.68
3344.93
3263.11
3193.69
3136.12
3089.81
3054.16
3028.54
3012.34
3004.94
3005.74
3014.14
3029.56
3051.45
3079.26
3112.49
3150.64
3193.25
3239.88
3290.09
3343.49
3399.68
3458.3
3518.99
3581.4
3645.21
3710.09
3775.73
3841.81
3908.04
3974.13
4039.79
4104.73
4168.69
4231.39
4292.6
4352.05
4409.51
4464.78
4517.62
4567.87
4615.34
4659.87
4701.32
4739.58
4774.53
4806.1
4834.23
4858.86
4879.97
4897.54
4911.59
4922.13
4929.2
4932.84
4933.11
4930.08
4923.82
4914.42
4901.98
4886.6
4868.38
4847.45
4823.91
4797.91
4769.59
4739.08
4706.55
4672.16
4636.08
4598.5
4559.62
4519.63
4478.75
4437.21
4395.22
4353.02
4310.83
4268.88
4227.34
4186.38
4146.04
4106.21
4066.45
4025.72
3981.83
3930.41
3862.96
3763.07
3599.27
3311.7
2788.36
1830.74
359.821
1128.33
15000
15000
15000
15000
15000
15000
15000
15000
15000
15000
15000
14999.9
14999.9
14999.9
14999.8
14999.8
14999.7
14999.5
14999.4
14999.2
14998.9
14998.5
14998
14997.4
14996.6
14995.6
14994.3
14992.7
14990.7
14988.2
14985.1
14981.3
14976.6
14970.9
14964
14955.7
14945.7
14933.8
14919.6
14902.9
14883.2
14860.1
14833.2
14802
14765.9
14724.5
14677.1
14623.1
14562
14493
14415.5
14328.9
14232.6
14125.8
14008.1
13878.8
13737.5
13583.7
13417.2
13237.5
13044.6
12838.3
12618.8
12386.1
12140.6
11882.7
11612.9
11332
11040.6
10739.7
10430.5
10113.9
9791.33
9463.98
9133.26
8800.6
8467.43
8135.24
7805.48
7479.58
7158.95
6844.93
6538.8
6241.73
5954.82
5679.06
5415.33
5164.36
4926.79
4703.13
4493.75
4298.9
4118.72
3953.23
3802.36
3665.92
3543.65
3435.19
3340.14
3258.02
3188.31
3130.44
3083.85
3047.92
3022.03
3005.57
2997.92
2998.47
3006.63
3021.82
3043.49
3071.09
3104.12
3142.09
3184.52
3230.98
3281.04
3334.29
3390.36
3448.86
3509.44
3571.77
3635.5
3700.32
3765.91
3831.97
3898.19
3964.27
4029.95
4094.92
4158.93
4221.7
4282.98
4342.53
4400.1
4455.48
4508.46
4558.84
4606.46
4651.14
4692.76
4731.18
4766.3
4798.04
4826.33
4851.13
4872.4
4890.13
4904.33
4915.01
4922.22
4925.98
4926.37
4923.44
4917.28
4907.98
4895.61
4880.3
4862.14
4841.26
4817.77
4791.81
4763.52
4733.04
4700.53
4666.16
4630.1
4592.54
4553.68
4513.71
4472.85
4431.33
4389.37
4347.19
4305.04
4263.11
4221.61
4180.69
4140.4
4100.61
4060.92
4020.27
3976.51
3925.34
3858.44
3759.83
3599.16
3319.26
2813.76
1887.47
358.225
1119.26
15000
15000
15000
15000
15000
15000
15000
15000
15000
15000
15000
14999.9
14999.9
14999.9
14999.8
14999.8
14999.7
14999.5
14999.4
14999.2
14998.9
14998.5
14998
14997.4
14996.6
14995.6
14994.3
14992.7
14990.7
14988.2
14985.1
14981.3
14976.6
14971
14964.1
14955.8
14945.8
14933.9
14919.7
14903
14883.3
14860.2
14833.3
14802.1
14766.1
14724.7
14677.4
14623.4
14562.3
14493.4
14416
14329.4
14233.1
14126.4
14008.8
13879.6
13738.3
13584.7
13418.2
13238.6
13045.7
12839.6
12620.1
12387.5
12142.1
11884.2
11614.4
11333.5
11042.1
10741.3
10432
10115.4
9792.78
9465.36
9134.54
8801.75
8468.45
8136.08
7806.12
7480.01
7159.13
6844.84
6538.41
6241.02
5953.78
5677.66
5413.54
5162.18
4924.2
4700.11
4490.29
4295
4114.37
3948.42
3797.09
3660.19
3537.46
3428.54
3333.03
3250.46
3180.3
3122.01
3074.99
3038.64
3012.35
2995.49
2987.46
2987.65
2995.45
3010.3
3031.64
3058.93
3091.66
3129.35
3171.51
3217.72
3267.55
3320.59
3376.45
3434.78
3495.21
3557.4
3621.02
3685.74
3751.26
3817.27
3883.47
3949.56
4015.26
4080.28
4144.36
4207.22
4268.62
4328.3
4386.03
4441.59
4494.76
4545.35
4593.18
4638.1
4679.95
4718.61
4753.98
4785.97
4814.52
4839.56
4861.07
4879.04
4893.46
4904.36
4911.76
4915.72
4916.28
4913.52
4907.5
4898.33
4886.08
4870.87
4852.81
4832
4808.58
4782.68
4754.44
4724
4691.53
4657.19
4621.17
4583.64
4544.8
4504.86
4464.04
4422.55
4380.62
4338.49
4296.38
4254.5
4213.06
4172.19
4131.96
4092.25
4052.63
4012.09
3968.49
3917.61
3851.24
3753.71
3595.18
3319.2
2819.04
1891.94
355.264
1116.53
15000
15000
15000
15000
15000
15000
15000
15000
15000
15000
15000
14999.9
14999.9
14999.9
14999.8
14999.8
14999.7
14999.5
14999.4
14999.2
14998.9
14998.5
14998
14997.4
14996.6
14995.6
14994.3
14992.7
14990.7
14988.2
14985.1
14981.3
14976.7
14971
14964.1
14955.8
14945.8
14934
14919.8
14903.1
14883.4
14860.4
14833.5
14802.4
14766.4
14725
14677.7
14623.8
14562.8
14493.9
14416.6
14330.1
14233.9
14127.3
14009.7
13880.6
13739.4
13585.9
13419.5
13240
13047.3
12841.2
12621.8
12389.3
12143.9
11886.1
11616.4
11335.5
11044.2
10743.4
10434.1
10117.4
9794.71
9467.19
9136.24
8803.3
8469.8
8137.21
7807
7480.59
7159.39
6844.75
6537.93
6240.12
5952.43
5675.84
5411.22
5159.34
4920.82
4696.17
4485.77
4289.89
4108.66
3942.12
3790.18
3652.66
3529.32
3419.8
3323.69
3240.52
3169.78
3110.91
3063.32
3026.42
2999.59
2982.22
2973.68
2973.37
2980.7
2995.1
3016
3042.87
3075.21
3112.52
3154.33
3200.2
3249.72
3302.47
3358.07
3416.16
3476.38
3538.38
3601.85
3666.45
3731.87
3797.82
3863.98
3930.07
3995.79
4060.88
4125.05
4188.03
4249.58
4309.44
4367.38
4423.16
4476.58
4527.44
4575.56
4620.78
4662.95
4701.93
4737.63
4769.95
4798.82
4824.19
4846.02
4864.29
4879.02
4890.2
4897.87
4902.08
4902.87
4900.33
4894.51
4885.51
4873.42
4858.35
4840.41
4819.71
4796.38
4770.56
4742.38
4712
4679.58
4645.29
4609.31
4571.82
4533.02
4493.12
4452.34
4410.9
4369.02
4326.95
4284.89
4243.08
4201.71
4160.92
4120.77
4081.15
4041.63
4001.22
3957.8
3907.19
3841.28
3744.53
3587.23
3312.64
2811.68
1873.82
353.519
1137.47
15000
15000
15000
15000
15000
15000
15000
15000
15000
15000
15000
14999.9
14999.9
14999.9
14999.8
14999.8
14999.7
14999.5
14999.4
14999.2
14998.9
14998.5
14998
14997.4
14996.6
14995.6
14994.3
14992.7
14990.7
14988.2
14985.1
14981.3
14976.7
14971
14964.2
14955.9
14945.9
14934
14919.9
14903.2
14883.6
14860.6
14833.7
14802.6
14766.7
14725.4
14678.1
14624.3
14563.4
14494.6
14417.3
14330.9
14234.8
14128.3
14010.8
13881.8
13740.8
13587.4
13421.1
13241.7
13049.1
12843.2
12623.9
12391.5
12146.2
11888.5
11618.9
11338
11046.7
10745.9
10436.6
10119.9
9797.09
9469.45
9138.36
8805.22
8471.49
8138.63
7808.1
7481.34
7159.75
6844.67
6537.38
6239.06
5950.82
5673.65
5408.42
5155.89
4916.71
4691.37
4480.27
4283.66
4101.69
3934.4
3781.71
3643.44
3519.34
3409.07
3312.22
3228.31
3156.84
3097.26
3048.97
3011.39
2983.89
2965.87
2956.7
2955.78
2962.52
2976.35
2996.71
3023.06
3054.9
3091.73
3133.1
3178.55
3227.68
3280.07
3335.34
3393.13
3453.08
3514.85
3578.12
3642.56
3707.86
3773.72
3839.83
3905.91
3971.67
4036.82
4101.1
4164.23
4225.96
4286.03
4344.21
4400.27
4454
4505.19
4553.67
4599.26
4641.81
4681.19
4717.29
4750.02
4779.29
4805.06
4827.29
4845.95
4861.04
4872.57
4880.58
4885.1
4886.19
4883.91
4878.34
4869.56
4857.67
4842.77
4824.98
4804.42
4781.21
4755.48
4727.39
4697.09
4664.74
4630.51
4594.58
4557.14
4518.39
4478.55
4437.82
4396.44
4354.63
4312.62
4270.64
4228.91
4187.62
4146.93
4106.88
4067.36
4027.97
3987.71
3944.47
3894.12
3828.6
3732.43
3575.99
3302.55
2803.41
1869.2
352.932
1145.45
15000
15000
15000
15000
15000
15000
15000
15000
15000
15000
15000
14999.9
14999.9
14999.9
14999.8
14999.8
14999.7
14999.5
14999.4
14999.2
14998.9
14998.5
14998
14997.4
14996.6
14995.6
14994.3
14992.7
14990.7
14988.3
14985.2
14981.4
14976.7
14971.1
14964.2
14955.9
14946
14934.2
14920.1
14903.4
14883.8
14860.8
14834
14802.9
14767.1
14725.8
14678.6
14624.9
14564
14495.3
14418.1
14331.9
14235.9
14129.5
14012.1
13883.3
13742.4
13589.1
13423
13243.8
13051.3
12845.5
12626.4
12394.1
12149
11891.3
11621.8
11341
11049.7
10748.9
10439.6
10122.8
9799.93
9472.15
9140.88
8807.52
8473.52
8140.35
7809.45
7482.28
7160.23
6844.64
6536.79
6237.88
5949
5671.14
5405.19
5151.91
4911.94
4685.79
4473.85
4276.39
4093.56
3925.39
3771.81
3632.65
3507.66
3396.49
3298.75
3213.98
3141.64
3081.21
3032.09
2993.69
2965.4
2946.6
2936.68
2935.03
2941.07
2954.22
2973.93
2999.65
3030.9
3067.16
3107.99
3152.95
3201.6
3253.55
3308.42
3365.85
3425.48
3486.97
3549.99
3614.23
3679.37
3745.12
3811.17
3877.23
3943.01
4008.24
4072.63
4135.93
4197.86
4258.18
4316.65
4373.04
4427.12
4478.7
4527.59
4573.61
4616.61
4656.46
4693.04
4726.25
4756
4782.25
4804.94
4824.05
4839.58
4851.54
4859.94
4864.84
4866.27
4864.31
4859.03
4850.52
4838.87
4824.19
4806.58
4786.18
4763.11
4737.51
4709.53
4679.32
4647.05
4612.9
4577.03
4539.66
4500.98
4461.2
4420.54
4379.23
4337.5
4295.57
4253.68
4212.05
4170.87
4130.28
4090.35
4050.96
4011.71
3971.6
3928.56
3878.46
3813.3
3717.69
3562.19
3290.63
2796.44
1881.37
353.482
1150.69
15000
15000
15000
15000
15000
15000
15000
15000
15000
15000
15000
14999.9
14999.9
14999.9
14999.8
14999.8
14999.7
14999.5
14999.4
14999.2
14998.9
14998.5
14998
14997.4
14996.6
14995.6
14994.4
14992.8
14990.8
14988.3
14985.2
14981.4
14976.8
14971.1
14964.3
14956
14946.1
14934.3
14920.2
14903.6
14884
14861.1
14834.3
14803.3
14767.5
14726.3
14679.2
14625.6
14564.8
14496.2
14419.1
14333
14237.1
14130.8
14013.6
13884.9
13744.2
13591.1
13425.1
13246.1
13053.8
12848.2
12629.2
12397.1
12152.1
11894.6
11625.1
11344.4
11053.2
10752.4
10443
10126.2
9803.2
9475.27
9143.8
8810.19
8475.89
8142.37
7811.06
7483.43
7160.85
6844.69
6536.21
6236.62
5947.01
5668.38
5401.61
5147.47
4906.61
4679.53
4466.64
4268.2
4084.38
3915.19
3760.59
3620.41
3494.4
3382.21
3283.46
3197.67
3124.35
3062.93
3012.85
2973.51
2944.3
2924.6
2913.81
2911.32
2916.54
2928.9
2947.85
2972.85
3003.4
3039
3079.21
3123.57
3171.67
3223.11
3277.51
3334.51
3393.75
3454.9
3517.63
3581.63
3646.58
3712.19
3778.15
3844.18
3909.98
3975.28
4039.8
4103.27
4165.43
4226.03
4284.82
4341.56
4396.05
4448.07
4497.42
4543.94
4587.46
4627.84
4664.96
4698.71
4729.02
4755.81
4779.04
4798.67
4814.71
4827.15
4836.01
4841.34
4843.18
4841.59
4836.66
4828.46
4817.09
4802.65
4785.27
4765.07
4742.17
4716.72
4688.86
4658.77
4626.6
4592.53
4556.75
4519.46
4480.85
4441.15
4400.57
4359.35
4317.71
4275.88
4234.1
4192.58
4151.52
4111.06
4071.26
4032.02
3992.92
3952.98
3910.15
3860.31
3795.53
3700.51
3546.09
3276.77
2786.93
1874.6
354.062
1143.64
15000
15000
15000
15000
15000
15000
15000
15000
15000
15000
15000
14999.9
14999.9
14999.9
14999.8
14999.8
14999.7
14999.5
14999.4
14999.2
14998.9
14998.5
14998
14997.4
14996.6
14995.6
14994.4
14992.8
14990.8
14988.3
14985.2
14981.5
14976.8
14971.2
14964.4
14956.1
14946.2
14934.4
14920.4
14903.8
14884.2
14861.4
14834.7
14803.7
14768
14726.9
14679.8
14626.3
14565.6
14497.1
14420.2
14334.2
14238.4
14132.3
14015.3
13886.8
13746.3
13593.3
13427.5
13248.7
13056.6
12851.1
12632.4
12400.4
12155.5
11898.2
11628.8
11348.2
11057
10756.2
10446.9
10130
9806.88
9478.8
9147.12
8813.24
8478.61
8144.7
7812.95
7484.8
7161.65
6844.85
6535.68
6235.33
5944.92
5665.42
5397.75
5142.66
4900.8
4672.69
4458.74
4259.21
4074.27
3903.96
3748.22
3606.9
3479.73
3366.4
3266.5
3179.58
3105.14
3042.62
2991.45
2951.05
2920.79
2900.08
2888.3
2884.85
2889.14
2900.61
2918.69
2942.86
2972.62
3007.47
3046.96
3090.64
3138.11
3188.96
3242.82
3299.32
3358.11
3418.87
3481.26
3544.97
3609.69
3675.13
3740.98
3806.95
3872.76
3938.12
4002.77
4066.43
4128.83
4189.72
4248.86
4306
4360.93
4413.42
4463.29
4510.36
4554.45
4595.42
4633.15
4667.51
4698.43
4725.83
4749.66
4769.89
4786.5
4799.48
4808.87
4814.69
4816.99
4815.83
4811.28
4803.44
4792.39
4778.24
4761.12
4741.14
4718.44
4693.16
4665.46
4635.5
4603.45
4569.49
4533.81
4496.61
4458.1
4418.49
4378.01
4336.88
4295.35
4253.63
4211.97
4170.58
4129.66
4089.34
4049.69
4010.61
3971.69
3931.94
3889.32
3839.76
3775.37
3680.98
3527.68
3260.55
2775.46
1875.15
353.849
1145.79
15000
15000
15000
15000
15000
15000
15000
15000
15000
15000
15000
14999.9
14999.9
14999.9
14999.8
14999.8
14999.7
14999.5
14999.4
14999.2
14998.9
14998.5
14998
14997.4
14996.6
14995.6
14994.4
14992.8
14990.8
14988.3
14985.3
14981.5
14976.9
14971.3
14964.5
14956.2
14946.4
14934.6
14920.6
14904
14884.5
14861.7
14835
14804.1
14768.5
14727.5
14680.5
14627.1
14566.5
14498.1
14421.3
14335.5
14239.9
14134
14017.1
13888.8
13748.5
13595.7
13430.2
13251.5
13059.6
12854.4
12635.8
12404
12159.3
11902.1
11632.9
11352.4
11061.3
10760.5
10451.1
10134.2
9810.98
9482.73
9150.82
8816.65
8481.68
8147.35
7815.11
7486.41
7162.65
6845.16
6535.24
6234.08
5942.78
5662.36
5393.69
5137.56
4894.61
4665.38
4450.26
4249.54
4063.39
3891.84
3734.85
3592.26
3463.83
3349.23
3248.07
3159.9
3084.22
3020.47
2968.11
2926.52
2895.11
2873.27
2860.39
2855.87
2859.12
2869.58
2886.7
2909.94
2938.81
2972.81
3011.49
3054.41
3101.16
3151.35
3204.58
3260.52
3318.8
3379.1
3441.1
3504.48
3568.93
3634.15
3699.86
3765.75
3831.55
3896.97
3961.74
4025.58
4088.23
4149.43
4208.94
4266.5
4321.9
4374.92
4425.35
4473
4517.72
4559.33
4597.72
4632.76
4664.35
4692.43
4716.92
4737.8
4755.03
4768.63
4778.59
4784.96
4787.77
4787.09
4782.98
4775.54
4764.85
4751.04
4734.2
4714.48
4692.01
4666.93
4639.41
4609.61
4577.69
4543.86
4508.3
4471.21
4432.81
4393.31
4352.94
4311.93
4270.52
4228.93
4187.41
4146.16
4105.39
4065.23
4025.75
3986.85
3948.11
3908.56
3866.18
3816.91
3752.93
3659.17
3506.95
3241.61
2759.47
1863.37
351.447
1149.09
15000
15000
15000
15000
15000
15000
15000
15000
15000
15000
15000
14999.9
14999.9
14999.9
14999.8
14999.8
14999.7
14999.5
14999.4
14999.2
14998.9
14998.5
14998
14997.4
14996.6
14995.7
14994.4
14992.8
14990.8
14988.4
14985.3
14981.6
14977
14971.3
14964.5
14956.3
14946.5
14934.8
14920.8
14904.3
14884.8
14862
14835.4
14804.6
14769
14728.1
14681.3
14627.9
14567.5
14499.2
14422.6
14336.9
14241.5
14135.8
14019.1
13891
13750.9
13598.3
13433
13254.6
13062.9
12857.9
12639.5
12408
12163.5
11906.4
11637.4
11356.9
11065.9
10765.2
10455.8
10138.8
9815.46
9487.04
9154.9
8820.44
8485.09
8150.32
7817.58
7488.29
7163.87
6845.66
6534.94
6232.9
5940.67
5659.25
5389.52
5132.27
4888.16
4657.72
4441.35
4239.34
4051.87
3878.99
3720.64
3576.68
3446.88
3330.9
3228.37
3138.84
3061.8
2996.73
2943.04
2900.16
2867.48
2844.4
2830.31
2824.62
2826.73
2836.09
2852.13
2874.35
2902.23
2935.29
2973.07
3015.14
3061.1
3110.53
3163.08
3218.37
3276.08
3335.86
3397.41
3460.39
3524.53
3589.5
3655.03
3720.81
3786.58
3852.04
3916.92
3980.94
4043.84
4105.36
4165.25
4223.25
4279.15
4332.71
4383.73
4432.02
4477.4
4519.71
4558.81
4594.57
4626.9
4655.7
4680.91
4702.5
4720.42
4734.68
4745.28
4752.24
4755.62
4755.46
4751.85
4744.85
4734.57
4721.12
4704.62
4685.19
4662.97
4638.13
4610.81
4581.19
4549.44
4515.75
4480.33
4443.37
4405.09
4365.72
4325.48
4284.6
4243.32
4201.88
4160.51
4119.42
4078.82
4038.83
3999.54
3960.82
3922.28
3882.95
3840.82
3791.86
3728.29
3635.14
3483.76
3219.18
2735.1
1822.69
349.473
1150.73
15000
15000
15000
15000
15000
15000
15000
15000
15000
15000
15000
14999.9
14999.9
14999.9
14999.8
14999.8
14999.7
14999.5
14999.4
14999.2
14998.9
14998.5
14998
14997.4
14996.7
14995.7
14994.4
14992.8
14990.9
14988.4
14985.4
14981.6
14977
14971.4
14964.6
14956.5
14946.7
14934.9
14921
14904.5
14885.1
14862.4
14835.9
14805.1
14769.6
14728.8
14682
14628.8
14568.5
14500.4
14423.9
14338.4
14243.2
14137.6
14021.2
13893.3
13753.4
13601.1
13436
13257.9
13066.5
12861.7
12643.5
12412.2
12167.9
11911
11642.1
11361.8
11070.9
10770.2
10460.8
10143.8
9820.32
9491.73
9159.35
8824.58
8488.86
8153.63
7820.36
7490.47
7165.36
6846.38
6534.82
6231.87
5938.65
5656.17
5385.33
5126.9
4881.55
4649.82
4432.12
4228.75
4039.87
3865.56
3705.77
3560.35
3429.07
3311.62
3207.62
3116.62
3038.12
2971.61
2916.5
2872.22
2838.17
2813.75
2798.34
2791.37
2792.24
2800.39
2815.27
2836.36
2863.16
2895.19
2931.98
2973.12
3018.19
3066.8
3118.57
3173.16
3230.22
3289.42
3350.45
3413
3476.76
3541.44
3606.75
3672.39
3738.09
3803.57
3868.54
3932.73
3995.88
4057.72
4117.99
4176.45
4232.86
4286.99
4338.63
4387.58
4433.67
4476.71
4516.56
4553.09
4586.19
4615.78
4641.76
4664.11
4682.77
4697.75
4709.03
4716.65
4720.64
4721.06
4717.98
4711.47
4701.64
4688.59
4672.46
4653.35
4631.44
4606.85
4579.76
4550.35
4518.78
4485.27
4450
4413.19
4375.06
4335.83
4295.73
4255.01
4213.88
4172.6
4131.39
4090.48
4050.06
4010.26
3971.16
3932.65
3894.32
3855.22
3813.34
3764.71
3701.56
3609.02
3458.54
3195.28
2713.73
1811.12
349.078
1156.49
15000
15000
15000
15000
15000
15000
15000
15000
15000
15000
15000
14999.9
14999.9
14999.9
14999.8
14999.8
14999.7
14999.5
14999.4
14999.2
14998.9
14998.5
14998.1
14997.4
14996.7
14995.7
14994.4
14992.9
14990.9
14988.4
14985.4
14981.7
14977.1
14971.5
14964.8
14956.6
14946.8
14935.1
14921.2
14904.8
14885.4
14862.7
14836.3
14805.6
14770.2
14729.5
14682.9
14629.8
14569.6
14501.7
14425.3
14340
14245
14139.6
14023.4
13895.7
13756.1
13604.1
13439.2
13261.3
13070.2
12865.6
12647.7
12416.6
12172.6
11915.9
11647.2
11367
11076.2
10775.6
10466.2
10149.1
9825.54
9496.78
9164.16
8829.09
8492.98
8157.29
7823.47
7492.96
7167.14
6847.37
6534.94
6231.04
5936.79
5653.21
5381.19
5121.53
4874.89
4641.81
4422.71
4217.9
4027.55
3851.73
3690.4
3543.44
3410.6
3291.59
3186.02
3093.46
3013.41
2945.36
2888.74
2842.96
2807.44
2781.57
2764.76
2756.4
2755.93
2762.78
2776.4
2796.28
2821.9
2852.8
2888.53
2928.65
2972.75
3020.45
3071.38
3125.18
3181.52
3240.08
3300.53
3362.57
3425.91
3490.25
3555.29
3620.75
3686.36
3751.82
3816.85
3881.2
3944.58
4006.73
4067.38
4126.3
4183.23
4237.95
4290.23
4339.87
4386.68
4430.49
4471.13
4508.47
4542.4
4572.8
4599.61
4622.76
4642.21
4657.95
4669.97
4678.29
4682.95
4683.99
4681.48
4675.51
4666.17
4653.57
4637.83
4619.1
4597.5
4573.21
4546.38
4517.2
4485.85
4452.53
4417.44
4380.8
4342.84
4303.77
4263.83
4223.27
4182.31
4141.21
4100.18
4059.46
4019.23
3979.63
3940.74
3902.44
3864.34
3825.48
3783.88
3735.58
3672.9
3581.07
3431.84
3171.33
2697.31
1817.72
350.819
1146.44
15000
15000
15000
15000
15000
15000
15000
15000
15000
15000
15000
14999.9
14999.9
14999.9
14999.8
14999.8
14999.7
14999.5
14999.4
14999.2
14998.9
14998.5
14998.1
14997.5
14996.7
14995.7
14994.4
14992.9
14990.9
14988.5
14985.4
14981.7
14977.2
14971.6
14964.9
14956.7
14947
14935.3
14921.4
14905.1
14885.8
14863.1
14836.8
14806.2
14770.9
14730.2
14683.7
14630.8
14570.7
14503
14426.8
14341.7
14246.8
14141.7
14025.7
13898.3
13758.9
13607.1
13442.6
13265
13074.1
12869.8
12652.2
12421.3
12177.5
11921
11652.5
11372.5
11081.8
10781.2
10471.9
10154.8
9831.1
9502.18
9169.33
8833.95
8497.46
8161.3
7826.93
7495.78
7169.24
6848.66
6535.33
6230.46
5935.15
5650.43
5377.21
5116.27
4868.28
4633.8
4413.25
4206.94
4015.05
3837.66
3674.73
3526.14
3391.67
3271.01
3163.79
3069.59
2987.91
2918.23
2860
2812.64
2775.55
2748.15
2729.83
2720.01
2718.1
2723.56
2735.83
2754.39
2778.76
2808.45
2843.01
2882.03
2925.08
2971.79
3021.79
3074.74
3130.29
3188.13
3247.94
3309.43
3372.28
3436.22
3500.94
3566.18
3631.65
3697.06
3762.13
3826.6
3890.19
3952.64
4013.67
4073.04
4130.5
4185.8
4238.74
4289.08
4336.64
4381.24
4422.7
4460.88
4495.66
4526.93
4554.6
4578.6
4598.88
4615.43
4628.23
4637.3
4642.66
4644.36
4642.48
4637.08
4628.27
4616.16
4600.86
4582.52
4561.29
4537.32
4510.78
4481.86
4450.75
4417.65
4382.76
4346.32
4308.54
4269.65
4229.89
4189.51
4148.74
4107.82
4067
4026.48
3986.45
3947.08
3908.4
3870.33
3832.46
3793.86
3752.54
3704.6
3642.42
3551.41
3403.69
3146.25
2678.62
1810.53
351.874
1136.62
15000
15000
15000
15000
15000
15000
15000
15000
15000
15000
15000
14999.9
14999.9
14999.9
14999.8
14999.8
14999.7
14999.5
14999.4
14999.2
14998.9
14998.5
14998.1
14997.5
14996.7
14995.7
14994.5
14992.9
14990.9
14988.5
14985.5
14981.8
14977.2
14971.7
14965
14956.9
14947.1
14935.5
14921.7
14905.3
14886.1
14863.6
14837.3
14806.8
14771.5
14731
14684.6
14631.8
14571.9
14504.3
14428.4
14343.4
14248.8
14143.9
14028.1
13901
13761.8
13610.3
13446.1
13268.7
13078.1
12874.2
12656.8
12426.2
12182.6
11926.4
11658.1
11378.2
11087.7
10787.2
10477.9
10160.7
9837.01
9507.94
9174.86
8839.17
8502.3
8165.68
7830.75
7498.96
7171.69
6850.29
6536.05
6230.18
5933.8
5647.92
5373.45
5111.2
4861.84
4625.91
4403.87
4196
4002.52
3823.5
3658.92
3508.64
3372.47
3250.09
3141.16
3045.23
2961.84
2890.46
2830.54
2781.51
2742.78
2713.75
2693.84
2682.47
2679.04
2683.02
2693.85
2711.02
2734.04
2762.44
2795.76
2833.58
2875.51
2921.15
2970.15
3022.17
3076.86
3133.91
3193.01
3253.87
3316.18
3379.66
3444.02
3508.98
3574.26
3639.58
3704.66
3769.22
3833
3895.71
3957.1
4016.91
4074.89
4130.78
4184.37
4235.43
4283.75
4329.15
4371.45
4410.5
4446.17
4478.32
4506.88
4531.77
4552.93
4570.32
4583.95
4593.8
4599.91
4602.32
4601.1
4596.32
4588.08
4576.49
4561.67
4543.77
4522.92
4499.31
4473.09
4444.46
4413.62
4380.76
4346.1
4309.87
4272.29
4233.61
4194.05
4153.87
4113.3
4072.59
4031.97
3991.67
3951.87
3912.71
3874.27
3836.43
3798.81
3760.47
3719.46
3671.89
3610.26
3520.14
3374.08
3119.94
2659.17
1805.64
352.395
1129.14
15000
15000
15000
15000
15000
15000
15000
15000
15000
15000
15000
14999.9
14999.9
14999.9
14999.8
14999.8
14999.7
14999.6
14999.4
14999.2
14998.9
14998.5
14998.1
14997.5
14996.7
14995.7
14994.5
14992.9
14991
14988.5
14985.5
14981.8
14977.3
14971.8
14965.1
14957
14947.3
14935.7
14921.9
14905.6
14886.5
14864
14837.8
14807.4
14772.2
14731.8
14685.6
14632.9
14573.2
14505.7
14429.9
14345.2
14250.8
14146.1
14030.6
13903.7
13764.9
13613.7
13449.7
13272.7
13082.4
12878.7
12661.6
12431.3
12188
11932
11663.9
11384.3
11093.8
10793.5
10484.2
10167
9843.24
9514.03
9180.74
8844.75
8507.5
8170.42
7834.94
7502.51
7174.5
6852.28
6537.13
6230.25
5932.78
5645.72
5370
5106.42
4855.65
4618.25
4394.68
4185.23
3990.11
3809.42
3643.12
3491.12
3353.18
3229.04
3118.33
3020.62
2935.44
2862.29
2800.61
2749.83
2709.38
2678.66
2657.09
2644.07
2639.05
2641.47
2650.78
2666.48
2688.07
2715.09
2747.08
2783.64
2824.36
2868.86
2916.78
2967.79
3021.54
3077.74
3136.06
3196.22
3257.92
3320.89
3384.82
3449.45
3514.5
3579.68
3644.72
3709.34
3773.26
3836.22
3897.95
3958.18
4016.66
4073.13
4127.37
4179.13
4228.23
4274.44
4317.59
4357.53
4394.09
4427.17
4456.65
4482.45
4504.51
4522.79
4537.27
4547.95
4554.84
4558
4557.48
4553.36
4545.73
4534.69
4520.39
4502.95
4482.54
4459.31
4433.44
4405.13
4374.58
4341.99
4307.59
4271.6
4234.25
4195.78
4156.44
4116.47
4076.12
4035.63
3995.24
3955.16
3915.6
3876.68
3838.48
3800.88
3763.52
3725.45
3684.74
3637.57
3576.5
3487.3
3342.83
3091.37
2634.13
1780.9
351.419
1128.56
15000
15000
15000
15000
15000
15000
15000
15000
15000
15000
15000
14999.9
14999.9
14999.9
14999.8
14999.8
14999.7
14999.6
14999.4
14999.2
14998.9
14998.5
14998.1
14997.5
14996.7
14995.7
14994.5
14992.9
14991
14988.6
14985.6
14981.9
14977.4
14971.9
14965.2
14957.2
14947.5
14935.9
14922.2
14906
14886.8
14864.4
14838.3
14808
14772.9
14732.6
14686.5
14634
14574.4
14507.2
14431.6
14347
14252.9
14148.5
14033.2
13906.6
13768
13617.1
13453.5
13276.7
13086.8
12883.4
12666.6
12436.6
12193.6
11937.9
11670
11390.5
11100.3
10800
10490.8
10173.7
9849.79
9520.45
9186.96
8850.69
8513.07
8175.53
7839.52
7506.45
7177.71
6854.67
6538.61
6230.72
5932.15
5643.91
5366.92
5101.99
4849.8
4610.92
4385.79
4174.73
3977.95
3795.55
3627.51
3473.73
3334
3208.04
3095.49
2995.95
2908.94
2833.95
2770.45
2717.87
2675.63
2643.15
2619.84
2605.12
2598.42
2599.2
2606.92
2621.07
2641.16
2666.72
2697.32
2732.53
2771.96
2815.24
2862.01
2911.93
2964.68
3019.95
3077.42
3136.82
3197.85
3260.23
3323.68
3387.93
3452.68
3517.67
3582.62
3647.25
3711.29
3774.46
3836.48
3897.11
3956.06
4013.1
4067.97
4120.44
4170.29
4217.32
4261.33
4302.16
4339.64
4373.65
4404.07
4430.81
4453.8
4473
4488.36
4499.89
4507.61
4511.55
4511.77
4508.33
4501.34
4490.91
4477.15
4460.22
4440.26
4417.45
4391.97
4364.01
4333.78
4301.48
4267.36
4231.62
4194.52
4156.3
4117.19
4077.46
4037.34
3997.09
3956.94
3917.1
3877.77
3839.1
3801.15
3763.81
3726.7
3688.9
3648.52
3601.75
3541.25
3452.97
3310.02
3061.1
2607.87
1759.63
350.195
1158.45
15000
15000
15000
15000
15000
15000
15000
15000
15000
15000
15000
14999.9
14999.9
14999.9
14999.8
14999.8
14999.7
14999.6
14999.4
14999.2
14998.9
14998.6
14998.1
14997.5
14996.7
14995.8
14994.5
14993
14991
14988.6
14985.6
14982
14977.5
14972
14965.3
14957.3
14947.7
14936.2
14922.5
14906.3
14887.2
14864.9
14838.8
14808.6
14773.7
14733.5
14687.5
14635.2
14575.8
14508.7
14433.3
14349
14255
14150.9
14035.9
13909.6
13771.3
13620.7
13457.4
13281
13091.3
12888.3
12671.8
12442.1
12199.4
11943.9
11676.3
11397.1
11106.9
10806.8
10497.7
10180.6
9856.66
9527.2
9193.52
8856.98
8519.01
8181.03
7844.48
7510.79
7181.34
6857.48
6540.51
6231.62
5931.96
5642.54
5364.28
5098
4844.38
4604
4377.3
4164.62
3966.16
3782.03
3612.23
3456.64
3315.08
3187.26
3072.85
2971.43
2882.54
2805.67
2740.3
2685.86
2641.77
2607.47
2582.36
2565.87
2557.44
2556.51
2562.57
2575.1
2593.61
2617.65
2646.77
2680.57
2718.65
2760.63
2806.18
2854.94
2906.61
2960.88
3017.44
3076
3136.29
3198.03
3260.93
3324.72
3389.13
3453.87
3518.68
3583.27
3647.37
3710.7
3772.99
3833.98
3893.38
3950.95
4006.43
4059.59
4110.2
4158.03
4202.9
4244.62
4283.02
4317.98
4349.35
4377.05
4400.99
4421.11
4437.39
4449.81
4458.37
4463.12
4464.11
4461.4
4455.08
4445.28
4432.1
4415.7
4396.24
4373.88
4348.81
4321.23
4291.34
4259.37
4225.54
4190.09
4153.26
4115.3
4076.45
4036.97
3997.1
3957.1
3917.19
3877.61
3838.53
3800.12
3762.41
3725.33
3688.48
3650.97
3610.91
3564.54
3504.63
3417.27
3275.88
3029.81
2582.89
1755.94
350.129
1177.9
15000
15000
15000
15000
15000
15000
15000
15000
15000
15000
15000
14999.9
14999.9
14999.9
14999.8
14999.8
14999.7
14999.6
14999.4
14999.2
14998.9
14998.6
14998.1
14997.5
14996.7
14995.8
14994.5
14993
14991.1
14988.7
14985.7
14982
14977.6
14972.1
14965.5
14957.5
14947.9
14936.4
14922.8
14906.6
14887.6
14865.4
14839.4
14809.3
14774.5
14734.4
14688.6
14636.4
14577.1
14510.2
14435.1
14351
14257.3
14153.4
14038.7
13912.6
13774.7
13624.4
13461.4
13285.3
13096
12893.3
12677.2
12447.8
12205.4
11950.2
11682.8
11403.8
11113.9
10813.9
10504.9
10187.8
9863.83
9534.27
9200.41
8863.63
8525.32
8186.91
7849.85
7515.54
7185.39
6860.73
6542.86
6232.99
5932.24
5641.64
5362.12
5094.5
4839.45
4597.57
4369.31
4154.99
3954.85
3768.98
3597.39
3439.99
3296.57
3166.88
3050.57
2947.24
2856.44
2777.66
2710.37
2654.03
2608.05
2571.87
2544.91
2526.6
2516.38
2513.69
2518.02
2528.87
2545.74
2568.19
2595.77
2628.09
2664.74
2705.36
2749.61
2797.15
2847.67
2900.86
2956.43
3014.1
3073.58
3134.6
3196.89
3260.16
3324.16
3388.6
3453.2
3517.7
3581.81
3645.26
3707.77
3769.07
3828.89
3886.96
3943.03
3996.85
4048.18
4096.81
4142.52
4185.12
4224.45
4260.35
4292.68
4321.34
4346.24
4367.32
4384.53
4397.85
4407.29
4412.88
4414.66
4412.7
4407.09
4397.95
4385.38
4369.55
4350.6
4328.72
4304.1
4276.92
4247.41
4215.79
4182.29
4147.14
4110.6
4072.92
4034.34
3995.13
3955.52
3915.78
3876.14
3836.81
3798
3759.84
3722.4
3685.58
3649
3611.77
3572.03
3526.08
3466.75
3380.33
3240.6
2997.65
2556.51
1734.87
347.38
1227.61
15000
15000
15000
15000
15000
15000
15000
15000
15000
15000
15000
14999.9
14999.9
14999.9
14999.8
14999.8
14999.7
14999.6
14999.4
14999.2
14998.9
14998.6
14998.1
14997.5
14996.8
14995.8
14994.6
14993
14991.1
14988.7
14985.8
14982.1
14977.7
14972.2
14965.6
14957.6
14948.1
14936.7
14923.1
14907
14888.1
14865.9
14840
14810
14775.3
14735.4
14689.7
14637.6
14578.5
14511.9
14436.9
14353
14259.6
14156
14041.6
13915.8
13778.2
13628.2
13465.5
13289.8
13100.8
12898.5
12682.7
12453.7
12211.5
11956.7
11689.6
11410.8
11121.1
10821.3
10512.3
10195.3
9871.3
9541.66
9207.65
8870.62
8531.99
8193.17
7855.61
7520.71
7189.87
6864.43
6545.68
6234.83
5933.01
5641.26
5360.49
5091.53
4835.07
4591.7
4361.88
4145.94
3944.11
3756.5
3583.13
3423.9
3278.62
3147.04
3028.82
2923.57
2830.82
2750.1
2680.87
2622.59
2574.69
2536.6
2507.75
2487.57
2475.5
2471
2473.56
2482.67
2497.84
2518.64
2544.62
2575.39
2610.55
2649.74
2692.63
2738.88
2788.18
2840.23
2894.75
2951.45
3010.05
3070.29
3131.89
3194.59
3258.11
3322.18
3386.52
3450.86
3514.93
3578.44
3641.12
3702.69
3762.87
3821.4
3878.02
3932.47
3984.5
4033.9
4080.43
4123.91
4164.15
4200.98
4234.27
4263.9
4289.77
4311.81
4329.96
4344.21
4354.54
4360.99
4363.59
4362.41
4357.53
4349.07
4337.14
4321.9
4303.51
4282.13
4257.97
4231.23
4202.12
4170.87
4137.72
4102.9
4066.68
4029.29
3991
3952.07
3912.75
3873.28
3833.91
3794.85
3756.31
3718.42
3681.24
3644.68