<?xml version="1.0"?>
<VTKFile type="ImageData" version="0.1" byte_order="LittleEndian">
  <ImageData Origin="0 0 0" Spacing="1e-05 1e-05 1e-05" WholeExtent="0 191 0 191 0 0">
    <Piece Extent="0 191 0 191 0 0">
      <CellData Scalars="T">
        <DataArray type="Float32" Name="T" format="ascii" NumberOfComponents="1">
390.153
15000
14997.2
14992.5
14984.9
14973.3
14956.4
14932.4
14899.2
14854.5
14795.5
14719.3
14622.8
14502.6
14355.5
14178.4
13968.6
13723.6
13441.9
13122.4
12765.1
12370.7
11941.1
11478.9
10988
10472.7
9938.33
9390.62
8835.67
8279.77
7729.17
7189.94
6667.71
6167.64
5694.17
5251.02
4841.11
4466.51
4128.47
3827.44
3563.16
3334.69
3140.53
2978.71
2846.91
2742.53
2662.81
2604.95
2566.14
2543.68
2535.05
2537.92
2550.24
2570.25
2596.47
2627.74
2663.19
2702.2
2744.41
2789.63
2837.83
2889.07
2943.48
3001.17
3062.22
3126.65
3194.38
3265.26
3339.04
3415.4
3493.98
3574.43
3656.44
3739.75
3824.19
3909.69
3996.23
4083.87
4172.63
4262.47
4353.23
4444.58
4535.97
4626.65
4715.66
4801.95
4884.38
4961.87
5033.47
5098.45
5156.33
5206.91
5250.28
5286.7
5316.61
5340.47
5358.75
5371.81
5379.91
5383.21
5381.81
5375.8
5365.32
5350.68
5332.34
5311
5287.51
5262.88
5238.13
5214.25
5192.05
5172.05
5154.42
5138.95
5125
5111.56
5097.34
5080.84
5060.49
5034.79
5002.39
4962.27
4913.75
4856.6
4791.06
4717.78
4637.84
4552.65
4463.89
4373.38
4283
4194.6
4109.87
4030.32
3957.17
3891.37
3833.52
3783.95
3742.69
3709.52
3684.05
3665.75
3654.01
3648.22
3647.77
3652.16
3660.95
3673.84
3690.61
3711.16
3735.41
3763.34
3794.88
3829.91
3868.19
3909.32
3952.73
3997.68
4043.23
4088.29
4131.66
4172.08
4208.29
4239.13
4263.58
4280.85
4290.44
4292.14
4286.12
4272.85
4253.11
4227.95
4198.6
4166.4
4132.69
4098.79
4065.82
4034.72
4006.1
3980.25
3956.96
3935.45
3914.07
3889.76
3856.97
3805.61
3717.02
3556.03
3255.69
2686.11
1588.11
310.911
489.61
15000
14997.2
14992.5
14984.9
14973.4
14956.5
14932.5
14899.4
14854.7
14795.9
14719.8
14623.4
14503.3
14356.4
14179.5
13969.9
13725.1
13443.6
13124.3
12767.1
12372.8
11943.2
11481
10990
10474.5
9939.96
9391.96
8836.66
8280.36
7729.32
7189.6
6666.88
6166.28
5692.28
5248.62
4838.19
4463.09
4124.57
3823.09
3558.37
3329.5
3134.97
2972.82
2840.72
2736.08
2656.15
2598.11
2559.17
2536.64
2527.96
2530.84
2543.21
2563.3
2589.63
2621.02
2656.6
2695.73
2738.05
2783.35
2831.59
2882.84
2937.21
2994.82
3055.74
3120.01
3187.56
3258.23
3331.79
3407.93
3486.3
3566.57
3648.43
3731.61
3815.97
3901.41
3987.94
4075.6
4164.42
4254.35
4345.24
4436.76
4528.35
4619.27
4708.58
4795.2
4878.02
4955.94
5028
5093.47
5151.84
5202.93
5246.77
5283.65
5313.97
5338.2
5356.79
5370.11
5378.42
5381.89
5380.62
5374.7
5364.29
5349.68
5331.36
5310
5286.47
5261.75
5236.9
5212.88
5190.49
5170.28
5152.42
5136.69
5122.46
5108.75
5094.27
5077.52
5056.96
5031.07
4998.54
4958.31
4909.74
4852.59
4787.07
4713.86
4634.02
4548.95
4460.33
4369.96
4279.73
4191.46
4106.86
4027.41
3954.35
3888.62
3830.82
3781.28
3740.03
3706.86
3681.39
3663.09
3651.36
3645.58
3645.17
3649.6
3658.47
3671.45
3688.33
3709
3733.39
3761.45
3793.11
3828.24
3866.59
3907.76
3951.16
3996.05
4041.49
4086.38
4129.53
4169.69
4205.61
4236.13
4260.25
4277.2
4286.48
4287.92
4281.67
4268.22
4248.37
4223.15
4193.8
4161.65
4128.03
4094.25
4061.44
4030.49
4002.03
3976.31
3953.14
3931.73
3910.42
3886.16
3853.44
3802.24
3714.12
3554.65
3259.49
2709.29
1692.02
305.225
489.806
15000
14997.2
14992.5
14985
14973.5
14956.7
14932.8
14899.8
14855.3
14796.6
14720.8
14624.6
14504.9
14358.3
14181.8
13972.5
13728.2
13447
13128
12771.1
12377
11947.5
11485.3
10994.1
10478.4
9943.45
9394.91
8838.95
8281.88
7729.97
7189.31
6665.58
6163.95
5688.9
5244.18
4832.72
4456.61
4117.12
3814.71
3549.13
3319.44
3124.16
2961.33
2828.61
2723.43
2643.05
2584.64
2545.43
2522.71
2513.95
2516.82
2529.27
2549.5
2576.03
2607.65
2643.47
2682.84
2725.36
2770.81
2819.14
2870.41
2924.7
2982.14
3042.83
3106.78
3173.95
3244.21
3317.34
3393.05
3471.02
3550.93
3632.47
3715.4
3799.58
3884.92
3971.42
4059.12
4148.04
4238.15
4329.28
4421.12
4513.11
4604.51
4694.39
4781.68
4865.25
4944
5016.98
5083.4
5142.76
5194.83
5239.63
5277.4
5308.54
5333.5
5352.71
5366.55
5375.29
5379.1
5378.09
5372.35
5362.08
5347.55
5329.25
5307.87
5284.25
5259.39
5234.32
5210.01
5187.27
5166.64
5148.31
5132.06
5117.3
5103.05
5088.04
5070.81
5049.81
5023.56
4990.74
4950.32
4901.64
4844.47
4779.02
4705.94
4626.3
4541.47
4453.12
4363.04
4273.09
4185.1
4100.74
4021.51
3948.63
3883.03
3825.33
3775.85
3734.64
3701.48
3676.02
3657.72
3646
3640.25
3639.91
3644.45
3653.45
3666.62
3683.72
3704.62
3729.27
3757.58
3789.48
3824.81
3863.29
3904.52
3947.9
3992.66
4037.87
4082.43
4125.15
4164.78
4200.11
4230
4253.48
4269.79
4278.48
4279.38
4272.69
4258.9
4238.83
4213.5
4184.15
4152.1
4118.68
4085.16
4052.64
4022
3993.85
3968.41
3945.47
3924.24
3903.07
3878.91
3846.29
3795.31
3707.78
3549.94
3259.01
2718.28
1710.85
305.166
491.601
15000
14997.3
14992.6
14985.1
14973.6
14956.9
14933.2
14900.3
14856.1
14797.7
14722.2
14626.5
14507.2
14361.2
14185.2
13976.6
13732.8
13452.3
13133.8
12777.3
12383.6
11954.3
11492.2
11000.8
10484.8
9949.28
9400
8843.1
8284.92
7731.76
7189.72
6664.52
6161.35
5684.73
5238.44
4825.41
4447.77
4106.8
3802.97
3536.05
3305.1
3108.65
2944.74
2811.06
2705.04
2623.93
2564.93
2525.26
2502.22
2493.28
2496.11
2508.63
2529.04
2555.82
2587.75
2623.9
2663.6
2706.4
2752.07
2800.53
2851.81
2905.99
2963.2
3023.54
3087.03
3153.67
3223.32
3295.82
3370.9
3448.27
3527.63
3608.7
3691.26
3775.16
3860.33
3946.77
4034.5
4123.57
4213.92
4305.4
4397.69
4490.25
4582.35
4673.05
4761.3
4845.97
4925.94
5000.24
5068.07
5128.87
5182.38
5228.57
5267.67
5300.02
5326.05
5346.2
5360.82
5370.21
5374.53
5373.92
5368.49
5358.42
5344.03
5325.79
5304.37
5280.64
5255.57
5230.19
5205.46
5182.19
5160.94
5141.9
5124.89
5109.33
5094.27
5078.48
5060.52
5038.87
5012.08
4978.84
4938.13
4889.29
4832.09
4766.73
4693.86
4614.5
4530.04
4442.09
4352.44
4262.93
4175.35
4091.37
4012.47
3939.87
3874.48
3816.94
3767.56
3726.4
3693.27
3667.82
3649.53
3637.84
3632.15
3631.9
3636.59
3645.81
3659.24
3676.65
3697.9
3722.91
3751.58
3783.81
3819.41
3858.09
3899.39
3942.72
3987.28
4032.13
4076.18
4118.24
4157.1
4191.56
4220.52
4243.04
4258.42
4266.23
4266.37
4259.03
4244.76
4224.36
4198.9
4169.57
4137.69
4104.57
4071.44
4039.37
4009.2
3981.51
3956.49
3933.9
3912.95
3891.96
3867.92
3835.4
3784.62
3697.6
3541.04
3252.74
2715.52
1703.19
305.072
492.91
15000
14997.3
14992.6
14985.2
14973.9
14957.3
14933.7
14901.1
14857.1
14799.1
14724.1
14628.9
14510.3
14365
14189.8
13982
13739.1
13459.4
13141.7
12786
12392.8
11963.8
11501.9
11010.5
10494.1
9958.01
9407.86
8849.83
8290.27
7735.52
7191.72
6664.62
6159.44
5680.75
5232.34
4817.22
4437.51
4094.52
3788.76
3519.98
3287.29
3089.22
2923.82
2788.78
2681.56
2599.41
2539.55
2499.19
2475.66
2466.4
2469.08
2481.62
2502.19
2529.24
2561.52
2598.06
2638.14
2681.28
2727.22
2775.83
2827.12
2881.18
2938.09
2997.98
3060.9
3126.84
3195.72
3267.4
3341.66
3418.25
3496.88
3577.33
3659.38
3742.9
3827.82
3914.15
4001.91
4091.13
4181.77
4273.67
4366.52
4459.79
4552.77
4644.52
4733.99
4820.06
4901.59
4977.59
5047.21
5109.87
5165.24
5213.25
5254.06
5287.99
5315.44
5336.82
5352.49
5362.74
5367.76
5367.71
5362.7
5352.95
5338.75
5320.61
5299.19
5275.32
5249.99
5224.2
5198.93
5174.98
5152.91
5132.94
5114.92
5098.31
5082.19
5065.36
5046.44
5023.94
4996.43
4962.62
4921.52
4872.47
4815.23
4750
4677.39
4598.42
4514.44
4427.03
4337.96
4249.02
4162
4078.53
4000.08
3927.86
3862.77
3805.45
3756.23
3715.16
3682.09
3656.67
3638.41
3626.76
3621.16
3621.04
3625.94
3635.42
3649.18
3666.99
3688.68
3714.14
3743.26
3775.9
3811.82
3850.71
3892.08
3935.31
3979.57
4023.93
4067.29
4108.48
4146.32
4179.63
4207.37
4228.65
4242.82
4249.51
4248.65
4240.51
4225.63
4204.85
4179.22
4149.96
4118.33
4085.63
4053.03
4021.57
3992.04
3964.96
3940.49
3918.37
3897.76
3877
3853.09
3820.65
3770
3683.37
3527.76
3241.28
2707.04
1704.5
304.996
492.99
15000
14997.3
14992.7
14985.3
14974.1
14957.7
14934.3
14902
14858.4
14800.9
14726.4
14631.9
14514.1
14369.7
14195.6
13988.8
13747.1
13468.4
13151.9
12797
12404.7
11976.4
11514.8
11023.5
10506.9
9970.18
9419.12
8859.85
8298.74
7742.16
7196.27
6666.88
6159.26
5678.02
5227.01
4809.25
4426.93
4081.38
3773.13
3501.97
3267.02
3066.83
2899.46
2762.64
2653.81
2570.26
2509.21
2467.89
2443.61
2433.84
2436.23
2448.68
2469.33
2496.61
2529.23
2566.16
2606.65
2650.17
2696.4
2745.18
2796.49
2850.38
2906.96
2966.32
3028.55
3093.67
3161.63
3232.34
3305.6
3381.22
3458.97
3538.64
3620.04
3703.06
3787.64
3873.79
3961.54
4050.9
4141.84
4234.21
4327.7
4421.79
4515.78
4608.75
4699.66
4787.38
4870.76
4948.77
5020.54
5085.42
5143.02
5193.21
5236.1
5271.96
5301.15
5324.05
5341.04
5352.38
5358.31
5358.98
5354.54
5345.21
5331.31
5313.32
5291.92
5267.92
5242.29
5216.02
5190.1
5165.31
5142.25
5121.15
5101.89
5083.98
5066.55
5048.45
5028.34
5004.79
4976.38
4941.88
4900.3
4850.98
4793.7
4728.61
4656.33
4577.84
4494.45
4407.72
4319.36
4231.15
4144.83
4062.01
3984.14
3912.41
3847.72
3790.7
3741.7
3700.78
3667.8
3642.43
3624.23
3612.66
3607.17
3607.23
3612.36
3622.17
3636.33
3654.59
3676.79
3702.78
3732.41
3765.49
3801.77
3840.86
3882.27
3925.32
3969.18
4012.9
4055.38
4095.49
4132.05
4163.96
4190.21
4209.99
4222.71
4228.05
4226.02
4216.92
4201.35
4180.14
4154.37
4125.22
4093.95
4061.79
4029.88
3999.19
3970.46
3944.15
3920.36
3898.8
3878.61
3858.11
3834.32
3801.92
3751.33
3664.97
3510.15
3225.5
2695.22
1701.53
304.889
494.768
15000
14997.3
14992.8
14985.5
14974.4
14958.1
14935
14903.1
14859.9
14802.9
14729.1
14635.5
14518.6
14375.3
14202.3
13996.9
13756.5
13479.3
13164.1
12810.5
12419.3
11991.9
11530.9
11039.9
10523.3
9986.17
9434.28
8873.77
8311.02
7752.45
7204.24
6672.27
6161.84
5677.63
5223.53
4802.64
4417.17
4068.51
3757.22
3483.13
3245.38
3042.54
2872.71
2733.62
2622.74
2537.38
2474.76
2432.13
2406.82
2396.28
2398.16
2410.34
2430.94
2458.35
2491.24
2528.53
2569.41
2613.3
2659.82
2708.77
2760.09
2813.8
2869.99
2928.78
2990.24
3054.43
3121.34
3190.92
3263.05
3337.55
3414.25
3492.98
3573.59
3655.98
3740.11
3826
3913.66
4003.12
4094.35
4187.2
4281.35
4376.32
4471.42
4565.74
4658.25
4747.8
4833.26
4913.55
4987.74
5055.14
5115.3
5168.01
5213.31
5251.41
5282.64
5307.36
5325.91
5338.59
5345.63
5347.21
5343.51
5334.74
5321.24
5303.5
5282.16
5258.04
5232.1
5205.31
5178.63
5152.89
5128.66
5106.24
5085.53
5066.09
5047.12
5027.52
5006.01
4981.21
4951.75
4916.43
4874.27
4824.65
4767.29
4702.38
4630.49
4552.57
4469.88
4383.96
4296.46
4209.12
4123.65
4041.62
3964.46
3893.34
3829.15
3772.53
3723.82
3683.11
3650.28
3625.02
3606.91
3595.44
3590.1
3590.37
3595.79
3605.96
3620.56
3639.34
3662.1
3688.65
3718.81
3752.36
3788.98
3828.26
3869.64
3912.42
3955.75
3998.66
4040.08
4078.88
4113.94
4144.2
4168.72
4186.76
4197.81
4201.63
4198.29
4188.13
4171.79
4150.16
4124.27
4095.32
4064.51
4033.04
4001.97
3972.22
3944.45
3919.05
3896.08
3875.17
3855.45
3835.23
3811.54
3779.11
3728.5
3642.32
3488.24
3205.41
2678.53
1687.11
304.745
496.613
15000
14997.4
14992.9
14985.7
14974.7
14958.6
14935.8
14904.2
14861.5
14805.1
14732.1
14639.3
14523.6
14381.5
14209.9
14006
13767.2
13491.7
13178.1
12826.1
12436.3
12010.2
11550.2
11059.9
10543.5
10006.1
9453.55
8891.9
8327.56
7766.95
7216.3
6681.54
6168.02
5680.5
5222.92
4798.43
4409.32
4057.03
3742.16
3464.59
3223.48
3017.45
2844.63
2702.77
2589.35
2501.72
2437.12
2392.8
2366.09
2354.47
2355.56
2367.24
2387.59
2414.97
2448
2485.56
2526.76
2570.97
2617.75
2666.86
2718.17
2771.68
2827.46
2885.62
2946.25
3009.43
3075.2
3143.54
3214.39
3287.63
3363.13
3440.77
3520.44
3602.07
3685.63
3771.13
3858.62
3948.11
4039.56
4132.85
4227.66
4323.53
4419.77
4515.51
4609.71
4701.24
4788.93
4871.69
4948.53
5018.7
5081.67
5137.18
5185.17
5225.81
5259.37
5286.17
5306.56
5320.82
5329.21
5331.91
5329.11
5321.07
5308.11
5290.71
5269.52
5245.33
5219.07
5191.71
5164.22
5137.41
5111.88
5087.96
5065.62
5044.45
5023.72
5002.42
4979.31
4953.08
4922.43
4886.16
4843.35
4793.35
4735.93
4671.22
4599.77
4522.5
4440.63
4355.64
4269.13
4182.81
4098.33
4017.24
3940.93
3870.54
3806.97
3750.85
3702.52
3662.1
3629.47
3604.37
3586.4
3575.09
3569.93
3570.45
3576.19
3586.77
3601.85
3621.17
3644.5
3671.63
3702.33
3736.33
3773.26
3812.65
3853.91
3896.31
3938.96
3980.9
4021.06
4058.34
4091.68
4120.06
4142.64
4158.74
4167.94
4170.09
4165.32
4154.03
4136.92
4114.86
4088.93
4060.26
4030.04
3999.4
3969.34
3940.68
3914.03
3889.68
3867.63
3847.47
3828.27
3808.32
3784.69
3752.18
3701.46
3615.39
3461.99
3181.02
2658.05
1672.67
304.533
497.269
15000
14997.4
14993
14985.9
14975
14959.2
14936.6
14905.4
14863.2
14807.4
14735.2
14643.4
14528.8
14388
14218
14015.8
13778.8
13505.1
13193.5
12843.4
12455.4
12030.9
11572.2
11082.8
10567
10029.8
9476.81
8914.25
8348.45
7785.87
7232.79
6695.15
6178.39
5687.3
5225.92
4797.47
4404.29
4047.89
3728.95
3447.37
3202.38
2992.63
2816.28
2671.13
2554.68
2464.3
2397.25
2350.81
2322.32
2309.24
2309.22
2320.1
2339.94
2367.07
2400.06
2437.73
2479.14
2523.58
2570.57
2619.78
2671.05
2724.34
2779.69
2837.19
2896.95
2959.07
3023.62
3090.63
3160.08
3231.94
3306.11
3382.52
3461.1
3541.81
3624.64
3709.63
3796.82
3886.22
3977.82
4071.47
4166.89
4263.62
4360.99
4458.16
4554.09
4647.66
4737.68
4823.02
4902.67
4975.79
5041.79
5100.32
5151.26
5194.69
5230.84
5260
5282.48
5298.58
5308.54
5312.59
5310.92
5303.78
5291.52
5274.59
5253.64
5229.44
5202.9
5174.97
5146.61
5118.65
5091.71
5066.15
5042
5018.92
4996.26
4973.06
4948.19
4920.38
4888.38
4851.07
4807.52
4757.12
4699.62
4635.13
4564.18
4487.64
4406.68
4322.74
4237.36
4152.19
4068.85
3988.84
3913.5
3843.98
3781.15
3725.63
3677.79
3637.74
3605.4
3580.52
3562.75
3551.64
3546.72
3547.52
3553.61
3564.61
3580.2
3600.07
3623.98
3651.68
3682.89
3717.29
3754.46
3793.88
3834.91
3876.77
3918.59
3959.38
3998.08
4033.64
4065.05
4091.36
4111.8
4125.8
4133.02
4133.38
4127.11
4114.67
4096.77
4074.35
4048.43
4020.16
3990.67
3961
3932.09
3904.69
3879.28
3856.11
3835.08
3815.72
3797.06
3777.39
3753.78
3721.1
3670.18
3584.13
3431.38
3152.17
2632.17
1651.1
304.363
495.945
15000
14997.4
14993
14986
14975.3
14959.7
14937.4
14906.5
14864.8
14809.7
14738.3
14647.5
14534
14394.6
14226.2
14025.7
13790.7
13519.1
13209.6
12861.7
12475.7
12053.1
11596.2
11108.2
10593.3
10056.5
9503.54
8940.36
8373.39
7809.05
7253.65
6713.18
6193.14
5698.38
5233.01
4800.32
4402.75
4041.86
3718.41
3432.36
3183
2969.03
2788.66
2639.71
2519.73
2426.12
2356.15
2307.14
2276.43
2261.5
2259.98
2269.71
2288.73
2315.33
2348.04
2385.61
2427.07
2471.62
2518.71
2567.96
2619.14
2672.18
2727.07
2783.89
2842.76
2903.78
2967.06
3032.67
3100.65
3171
3243.72
3318.75
3396.1
3475.73
3557.69
3642.01
3728.75
3817.93
3909.53
4003.42
4099.34
4196.85
4295.3
4393.84
4491.49
4587.09
4679.47
4767.46
4850
4926.2
4995.38
5057.11
5111.2
5157.65
5196.63
5228.4
5253.24
5271.44
5283.24
5288.87
5288.54
5282.52
5271.13
5254.84
5234.25
5210.13
5183.36
5154.88
5125.64
5096.47
5068.04
5040.73
5014.64
4989.5
4964.75
4939.51
4912.71
4883.18
4849.73
4811.28
4766.93
4716.09
4658.5
4594.26
4523.85
4448.11
4368.17
4285.37
4201.25
4117.37
4035.29
3956.49
3882.28
3813.75
3751.78
3696.98
3649.72
3610.13
3578.16
3553.59
3536.08
3525.22
3520.58
3521.7
3528.18
3539.62
3555.71
3576.13
3600.6
3628.83
3660.5
3695.22
3732.54
3771.87
3812.53
3853.72
3894.53
3933.97
3971.03
4004.68
4033.97
4058.03
4076.18
4087.94
4093.06
4091.58
4083.77
4070.16
4051.53
4028.79
4003
3975.24
3946.58
3918.03
3890.42
3864.39
3840.35
3818.45
3798.51
3779.99
3761.88
3742.45
3718.8
3685.88
3634.67
3548.56
3396.4
3119
2602.6
1625.04
304.181
494.662
15000
14997.5
14993.1
14986.2
14975.6
14960.1
14938.1
14907.6
14866.3
14811.8
14741.1
14651.2
14538.9
14400.9
14234
14035.4
13802.3
13532.9
13225.6
12880.1
12496.4
12076
11621.1
11134.8
10621.3
10085.5
9532.82
8969.45
8401.66
7835.88
7278.42
6735.32
6212.1
5713.69
5244.28
4807.23
4405.06
4039.41
3711.13
3420.24
3166.11
2947.48
2762.63
2609.41
2485.44
2388.12
2314.77
2262.73
2229.36
2212.14
2208.72
2216.91
2234.76
2260.5
2292.64
2329.88
2371.16
2415.64
2462.7
2511.89
2562.92
2615.66
2670.07
2726.2
2784.15
2844.05
2906.03
2970.19
3036.63
3105.41
3176.55
3250.09
3326.04
3404.45
3485.36
3568.84
3654.95
3743.73
3835.17
3929.16
4025.44
4123.59
4222.98
4322.81
4422.08
4519.66
4614.37
4705
4790.47
4869.8
4942.25
5007.32
5064.73
5114.4
5156.45
5191.06
5218.52
5239.07
5252.97
5260.45
5261.71
5257.03
5246.72
5231.24
5211.17
5187.24
5160.32
5131.34
5101.22
5070.83
5040.86
5011.73
4983.61
4956.31
4929.34
4901.92
4873.09
4841.74
4806.74
4767.07
4721.87
4670.55
4612.86
4548.88
4479.07
4404.19
4325.34
4243.8
4161.04
4078.56
3997.88
3920.42
3847.44
3780.04
3719.04
3665.08
3618.5
3579.48
3547.97
3523.77
3506.59
3496.05
3491.73
3493.21
3500.09
3511.99
3528.57
3549.52
3574.51
3603.21
3635.26
3670.22
3707.56
3746.67
3786.8
3827.15
3866.77
3904.69
3939.92
3971.48
3998.48
4020.15
4035.89
4045.31
4048.27
4044.9
4035.54
4020.81
4001.49
3978.52
3952.94
3925.79
3898.11
3870.78
3844.57
3820.03
3797.45
3776.87
3758.05
3740.38
3722.79
3703.55
3679.79
3646.54
3594.96
3508.72
3357.11
3081.53
2568.92
1600
304.045
493.802
15000
14997.5
14993.2
14986.3
14975.8
14960.5
14938.6
14908.4
14867.6
14813.5
14743.5
14654.5
14543.2
14406.4
14241
14044.1
13813
13545.7
13240.7
12897.6
12516.4
12098.4
11645.8
11161.6
10649.8
10115.3
9563.48
9000.36
8432.21
7865.41
7306.29
6760.87
6234.74
5732.87
5259.51
4818.12
4411.29
4040.76
3707.44
3411.46
3152.25
2928.63
2738.91
2581.04
2452.64
2351.18
2274.02
2218.5
2182.02
2162.08
2156.33
2162.59
2178.87
2203.4
2234.63
2271.23
2312.09
2356.3
2403.15
2452.15
2502.93
2555.31
2609.19
2664.61
2721.65
2780.42
2841.08
2903.77
2968.62
3035.75
3105.23
3177.15
3251.58
3328.6
3408.29
3490.74
3576.03
3664.22
3755.31
3849.2
3945.65
4044.26
4144.44
4245.39
4346.15
4445.6
4542.53
4635.75
4724.1
4806.58
4882.36
4950.86
5011.71
5064.78
5110.08
5147.78
5178.1
5201.28
5217.55
5227.13
5230.25
5227.15
5218.15
5203.67
5184.29
5160.7
5133.75
5104.34
5073.41
5041.82
5010.28
4979.3
4949.09
4919.56
4890.29
4860.62
4829.67
4796.4
4759.78
4718.83
4672.74
4620.93
4563.14
4499.44
4430.25
4356.29
4278.6
4198.4
4117.09
4036.12
3956.94
3880.93
3809.32
3743.14
3683.24
3630.21
3584.43
3546.07
3515.1
3491.36
3474.58
3464.41
3460.45
3462.32
3469.62
3481.98
3499.05
3520.48
3545.93
3575.03
3607.36
3642.43
3679.67
3718.4
3757.86
3797.18
3835.44
3871.66
3904.9
3934.21
3958.79
3977.94
3991.16
3998.18
3998.96
3993.69
3982.82
3967
3947.06
3923.95
3898.68
3872.26
3845.63
3819.63
3794.9
3771.89
3750.81
3731.58
3713.87
3697.01
3679.89
3660.77
3636.8
3603.13
3551.09
3464.67
3313.64
3040.21
2532.81
1574.87
303.958
494.114
15000
14997.5
14993.2
14986.4
14976
14960.7
14939.1
14909
14868.5
14814.9
14745.4
14657
14546.6
14410.9
14246.8
14051.4
13822
13556.7
13254
12913.3
12534.6
12119.2
11669
11187.1
10677.5
10144.7
9594.14
9031.77
8463.75
7896.45
7336.14
6788.86
6260.21
5755.21
5278.17
4832.61
4421.22
4045.83
3707.43
3406.24
3141.77
2912.92
2718.07
2555.21
2422.05
2316.08
2234.7
2175.31
2135.31
2112.23
2103.72
2107.62
2121.93
2144.86
2174.83
2210.47
2250.61
2294.28
2340.73
2389.36
2439.78
2491.7
2545.02
2599.7
2655.8
2713.45
2772.79
2834
2897.23
2962.65
3030.39
3100.59
3173.37
3248.85
3327.14
3408.37
3492.64
3580.02
3670.54
3764.11
3860.51
3959.37
4060.13
4162.01
4264.07
4365.21
4464.24
4559.92
4651.08
4736.66
4815.77
4887.75
4952.14
5008.74
5057.48
5098.48
5131.9
5157.97
5176.88
5188.85
5194.09
5192.83
5185.37
5172.13
5153.63
5130.55
5103.7
5073.98
5042.32
5009.59
4976.53
4943.71
4911.4
4879.6
4848
4816.03
4782.89
4747.66
4709.38
4667.11
4620.09
4567.77
4509.88
4446.47
4377.93
4304.93
4228.45
4149.66
4069.88
3990.5
3912.92
3838.46
3768.3
3703.46
3644.75
3592.76
3547.86
3510.25
3479.91
3456.7
3440.39
3430.64
3427.1
3429.38
3437.1
3449.91
3467.43
3489.3
3515.15
3544.56
3577.06
3612.12
3649.11
3687.3
3725.91
3764.04
3800.76
3835.13
3866.21
3893.14
3915.18
3931.73
3942.38
3946.97
3945.55
3938.42
3926.08
3909.24
3888.77
3865.6
3840.73
3815.11
3789.63
3765
3741.8
3720.34
3700.73
3682.81
3666.16
3650.03
3633.28
3614.17
3589.89
3555.7
3503.13
3416.5
3266.17
2995.39
2495.5
1563.13
303.917
494.269
15000
14997.5
14993.3
14986.4
14976.1
14960.9
14939.3
14909.4
14869
14815.6
14746.5
14658.6
14548.9
14414
14250.9
14056.8
13829
13565.5
13264.8
12926.3
12550.1
12137.2
11689.6
11210.3
10702.9
10172.2
9623.41
9062.26
8494.92
7927.66
7366.72
6818.12
6287.46
5779.79
5299.47
4850.08
4434.39
4054.32
3710.94
3404.57
3134.8
2900.62
2700.47
2532.43
2394.25
2283.47
2197.56
2133.92
2090.03
2063.41
2051.75
2052.88
2064.81
2085.75
2114.07
2148.39
2187.48
2230.34
2276.13
2324.21
2374.1
2425.47
2478.14
2532.04
2587.2
2643.71
2701.74
2761.45
2823.05
2886.74
2952.68
3021.08
3092.09
3165.88
3242.6
3322.42
3405.46
3491.81
3581.52
3674.53
3770.64
3869.51
3970.6
4073.17
4176.31
4278.94
4379.86
4477.85
4571.7
4660.29
4742.69
4818.15
4886.15
4946.38
4998.72
5043.21
5079.97
5109.17
5130.99
5145.63
5153.26
5154.11
5148.46
5136.68
5119.28
5096.91
5070.35
5040.47
5008.19
4974.42
4939.92
4905.3
4870.93
4836.88
4802.95
4768.66
4733.32
4696.11
4656.12
4612.52
4564.55
4511.71
4453.71
4390.61
4322.73
4250.73
4175.5
4098.16
4019.97
3942.25
3866.33
3793.49
3724.87
3661.44
3604.01
3553.14
3509.22
3472.43
3442.79
3420.19
3404.4
3395.12
3392.02
3394.74
3402.9
3416.13
3434.07
3456.32
3482.49
3512.1
3544.66
3579.57
3616.15
3653.65
3691.24
3728.01
3763.04
3795.4
3824.2
3848.64
3868.05
3881.94
3890
3892.17
3888.58
3879.63
3865.89
3848.12
3827.2
3804.07
3779.67
3754.92
3730.61
3707.38
3685.68
3665.74
3647.54
3630.84
3615.12
3599.59
3583.08
3563.84
3539.13
3504.32
3451.16
3364.34
3214.92
2947.63
2457.52
1549.8
303.871
493.205
15000
14997.5
14993.2
14986.4
14976.1
14960.9
14939.3
14909.4
14869.1
14815.8
14746.9
14659.3
14549.9
14415.6
14253.3
14060.1
13833.5
13571.5
13272.6
12936.1
12562.1
12151.7
11706.7
11229.9
10725.1
10196.8
9650.01
9090.55
8524.39
7957.73
7396.76
6847.45
6315.38
5805.6
5322.52
4869.77
4450.18
4065.75
3717.65
3406.27
3131.31
2891.82
2686.35
2513.02
2369.66
2253.88
2163.18
2095.03
2046.91
2016.41
2001.23
1999.2
2008.36
2026.9
2053.19
2085.82
2123.52
2165.25
2210.11
2257.4
2306.58
2357.25
2409.17
2462.23
2516.41
2571.79
2628.5
2686.73
2746.7
2808.63
2872.74
2939.26
3008.4
3080.37
3155.38
3233.59
3315.19
3400.29
3488.95
3581.14
3676.7
3775.31
3876.46
3979.46
4083.42
4187.29
4289.88
4389.98
4486.34
4577.83
4663.44
4742.35
4813.97
4877.92
4933.99
4982.14
5022.45
5055.02
5080.02
5097.59
5107.9
5111.13
5107.55
5097.5
5081.44
5059.99
5033.91
5004.05
4971.33
4936.64
4900.82
4864.51
4828.15
4791.91
4755.68
4719.1
4681.58
4642.38
4600.69
4555.74
4506.82
4453.44
4395.34
4332.54
4265.34
4194.34
4120.38
4044.52
3967.95
3891.93
3817.73
3746.56
3679.53
3617.59
3561.49
3511.81
3468.93
3433.03
3404.16
3382.22
3367
3358.24
3355.61
3358.77
3367.36
3380.99
3399.3
3421.87
3448.26
3477.98
3510.46
3545.08
3581.11
3617.76
3654.16
3689.42
3722.61
3752.83
3779.25
3801.12
3817.86
3829.06
3834.54
3834.3
3828.61
3817.92
3802.87
3784.27
3762.99
3739.96
3716.1
3692.26
3669.13
3647.27
3627.02
3608.49
3591.58
3575.94
3560.99
3545.89
3529.43
3509.91
3484.62
3449.09
3395.28
3308.33
3160.04
2896.67
2415.71
1517.72
303.755
491.926
15000
14997.5
14993.2
14986.4
14976
14960.7
14939.1
14909.2
14868.8
14815.5
14746.5
14659
14549.7
14415.7
14253.8
14061.2
13835.5
13574.6
13277.1
12942.3
12570.3
12162.1
11719.5
11245.4
10743.2
10217.4
9672.97
9115.56
8551.05
7985.53
7425.12
6875.71
6342.86
5831.62
5346.39
4890.84
4467.87
4079.54
3727.1
3411.03
3131.1
2886.47
2675.76
2497.17
2348.6
2227.72
2132.08
2059.2
2006.61
1971.93
1952.89
1947.36
1953.37
1969.13
1993.01
2023.56
2059.51
2099.77
2143.4
2189.64
2237.89
2287.69
2338.75
2390.88
2444.03
2498.25
2553.65
2610.41
2668.75
2728.91
2791.17
2855.76
2922.96
2993.01
3066.14
3142.59
3222.55
3306.17
3393.54
3484.65
3579.39
3677.45
3778.39
3881.53
3986.03
4090.87
4194.88
4296.85
4395.53
4489.74
4578.45
4660.75
4735.99
4803.7
4863.59
4915.55
4959.59
4995.76
5024.17
5044.94
5058.2
5064.1
5062.86
5054.79
5040.33
5020.05
4994.68
4965.05
4932.07
4896.66
4859.67
4821.8
4783.57
4745.23
4706.78
4667.96
4628.3
4587.14
4543.77
4497.47
4447.6
4393.69
4335.47
4272.96
4206.43
4136.43
4063.75
3989.38
3914.44
3840.13
3767.67
3698.21
3632.81
3572.38
3517.67
3469.22
3427.43
3392.48
3364.42
3343.18
3328.58
3320.36
3318.22
3321.82
3330.82
3344.82
3363.45
3386.26
3412.79
3442.49
3474.77
3508.95
3544.28
3579.92
3615.01
3648.61
3679.84
3707.82
3731.76
3751.01
3765.05
3773.59
3776.51
3773.95
3766.23
3753.89
3737.64
3718.29
3696.74
3673.9
3650.62
3627.69
3605.72
3585.15
3566.23
3548.98
3533.17
3518.39
3504
3489.09
3472.49
3452.49
3426.48
3390.13
3335.65
3248.62
3101.59
2842.05
2368.69
1485.84
303.692
489.567
15000
14997.5
14993.2
14986.3
14975.8
14960.5
14938.7
14908.7
14868.1
14814.6
14745.5
14657.8
14548.4
14414.4
14252.6
14060.3
13835.1
13574.9
13278.5
12945
12574.7
12168.4
11728.1
11256.3
10756.7
10233.5
9691.66
9136.58
8574.1
8010.2
7450.89
6901.99
6369
5856.94
5370.21
4912.51
4486.76
4095.07
3738.78
3418.44
3133.91
2884.42
2668.68
2484.97
2331.25
2205.26
2104.62
2026.89
1969.66
1930.57
1907.41
1898.06
1900.59
1913.2
1934.29
1962.4
1996.23
2034.67
2076.75
2121.65
2168.72
2217.45
2267.48
2318.58
2370.64
2423.66
2477.73
2533.02
2589.75
2648.16
2708.54
2771.19
2836.38
2904.42
2975.57
3050.1
3128.24
3210.17
3296.01
3385.8
3479.44
3576.68
3677.1
3780.09
3884.83
3990.35
4095.5
4199.09
4299.86
4396.61
4488.26
4573.86
4652.68
4724.15
4787.93
4843.81
4891.74
4931.71
4963.76
4987.98
5004.44
5013.27
5014.64
5008.83
4996.23
4977.38
4952.97
4923.81
4890.8
4854.87
4816.9
4777.65
4737.7
4697.39
4656.84
4615.87
4574.12
4531.06
4486.04
4438.41
4387.59
4333.13
4274.78
4212.55
4146.67
4077.65
4006.23
3933.33
3860.02
3787.42
3716.69
3648.94
3585.18
3526.29
3472.98
3425.8
3385.12
3351.15
3323.94
3303.43
3289.46
3281.79
3280.14
3284.19
3293.57
3307.9
3326.79
3349.76
3376.32
3405.89
3437.85
3471.46
3505.94
3540.44
3574.06
3605.89
3635.05
3660.71
3682.13
3698.73
3710.09
3715.99
3716.43
3711.62
3701.99
3688.12
3670.78
3650.8
3629.06
3606.45
3583.78
3561.74
3540.86
3521.48
3503.75
3487.57
3472.64
3458.48
3444.37
3429.42
3412.44
3391.76
3364.89
3327.62
3272.46
3185.42
3039.83
2784.49
2320.88
1459.49
303.646
488.492
15000
14997.5
14993.1
14986.2
14975.6
14960.2
14938.2
14908
14867.2
14813.4
14744
14655.9
14546.3
14411.9
14250
14057.6
13832.6
13572.8
13277
12944.5
12575.5
12170.9
11732.5
11263
10765.8
10245.2
9705.91
9153.34
8593.16
8031.25
7473.49
6925.63
6393.1
5880.87
5393.3
4934.09
4506.2
4111.77
3752.2
3428.1
3139.42
2885.45
2664.99
2476.39
2317.69
2186.69
2081.07
1998.46
1936.48
1892.84
1865.34
1851.92
1850.67
1859.82
1877.76
1903.06
1934.41
1970.68
2010.87
2054.12
2099.74
2147.18
2196
2245.92
2296.79
2348.56
2401.29
2455.1
2510.22
2566.9
2625.42
2686.1
2749.26
2815.22
2884.3
2956.78
3032.94
3112.99
3197.1
3285.32
3377.6
3473.74
3573.36
3675.89
3780.58
3886.47
3992.47
4097.4
4200.01
4299.08
4393.5
4482.27
4564.57
4639.79
4707.48
4767.37
4819.31
4863.24
4899.13
4927.02
4946.94
4958.95
4963.21
4959.93
4949.46
4932.3
4909.11
4880.68
4847.89
4811.68
4772.95
4732.51
4691.02
4648.92
4606.38
4563.38
4519.64
4474.73
4428.09
4379.16
4327.39
4272.38
4213.89
4151.91
4086.65
4018.58
3948.38
3876.92
3805.2
3734.28
3665.27
3599.21
3537.07
3479.71
3427.81
3381.9
3342.35
3309.36
3283.01
3263.25
3249.92
3242.81
3241.64
3246.1
3255.84
3270.45
3289.52
3312.57
3339.06
3368.4
3399.89
3432.8
3466.3
3499.52
3531.56
3561.51
3588.52
3611.8
3630.68
3644.64
3653.35
3656.69
3654.74
3647.8
3636.38
3621.12
3602.8
3582.29
3560.45
3538.13
3516.06
3494.87
3474.99
3456.66
3439.92
3424.58
3410.28
3396.45
3382.36
3367.1
3349.49
3327.94
3300.06
3261.82
3205.99
3119.03
2975.05
2724.12
2269.24
1419.18
303.618
487.351
15000
14997.4
14993
14986
14975.4
14959.8
14937.7
14907.2
14866.1
14812
14742.1
14653.6
14543.5
14408.8
14246.4
14053.8
13828.6
13568.9
13273.4
12941.6
12573.5
12170.2
11733.4
11265.9
10770.9
10252.7
9716.01
9165.99
8608.26
8048.58
7492.73
6946.35
6414.79
5902.95
5415.15
4955.08
4525.69
4129.16
3766.91
3439.62
3147.29
2889.3
2664.51
2471.35
2307.92
2172.1
2061.62
1974.16
1907.41
1859.12
1827.15
1809.46
1804.18
1809.58
1824.07
1846.21
1874.73
1908.47
1946.42
1987.71
2031.6
2077.47
2124.88
2173.46
2223.03
2273.47
2324.8
2377.14
2430.66
2485.62
2542.3
2601.02
2662.14
2725.99
2792.92
2863.26
2937.31
3015.33
3097.5
3183.93
3274.61
3369.39
3467.93
3569.71
3674.03
3779.99
3886.55
3992.53
4096.71
4197.87
4294.85
4386.62
4472.3
4551.2
4622.79
4686.73
4742.77
4790.78
4830.69
4862.44
4886.03
4901.47
4908.86
4908.37
4900.3
4885.12
4863.43
4835.99
4803.68
4767.44
4728.2
4686.81
4643.99
4600.26
4555.91
4511
4465.37
4418.68
4370.48
4320.26
4267.56
4211.99
4153.33
4091.56
4026.88
3959.71
3890.68
3820.6
3750.42
3681.14
3613.79
3549.39
3488.85
3432.99
3382.47
3337.82
3299.38
3267.38
3241.89
3222.86
3210.17
3203.6
3202.9
3207.74
3217.78
3232.61
3251.8
3274.83
3301.16
3330.13
3361.05
3393.12
3425.52
3457.34
3487.69
3515.69
3540.49
3561.36
3577.69
3589.04
3595.17
3596.04
3591.82
3582.89
3569.82
3553.3
3534.14
3513.21
3491.34
3469.33
3447.85
3427.44
3408.44
3390.98
3375.02
3360.28
3346.32
3332.54
3318.18
3302.33
3283.87
3261.28
3232.28
3193.03
3136.57
3049.83
2907.7
2661.81
2219.43
1408.53
303.692
486.708
15000
14997.4
14993
14985.9
14975.1
14959.4
14937.1
14906.4
14865
14810.5
14740.2
14651.3
14540.6
14405.3
14242.5
14049.4
13823.9
13564
13268.6
12937.1
12569.6
12167.3
11731.8
11265.9
10772.9
10257
9722.62
9175.08
8619.82
8062.49
7508.77
6964.18
6433.99
5923.01
5435.53
4975.18
4544.89
4146.87
3782.55
3452.66
3157.24
2895.73
2667.06
2469.73
2301.89
2161.49
2046.33
1954.15
1882.68
1829.73
1793.2
1771.11
1761.61
1763.01
1773.77
1792.45
1817.81
1848.68
1884.06
1923.05
1964.89
2008.94
2054.69
2101.75
2149.86
2198.88
2248.77
2299.6
2351.52
2404.78
2459.64
2516.43
2575.51
2637.24
2702
2770.13
2841.97
2917.82
2997.9
3082.35
3171.22
3264.38
3361.57
3462.32
3565.98
3671.72
3778.52
3885.26
3990.73
4093.71
4193.03
4287.61
4376.52
4459
4534.45
4602.42
4662.61
4714.8
4758.84
4794.63
4822.08
4841.16
4851.92
4854.46
4849.06
4836.11
4816.19
4790.03
4758.48
4722.48
4682.98
4640.87
4596.94
4551.78
4505.78
4459.11
4411.7
4363.32
4313.61
4262.15
4208.51
4152.36
4093.5
4031.91
3967.74
3901.41
3833.49
3764.74