<?xml version="1.0"?>
<VTKFile type="ImageData" version="0.1" byte_order="LittleEndian">
  <ImageData Origin="0 0 0" Spacing="1e-05 1e-05 1e-05" WholeExtent="0 191 0 191 0 0">
    <Piece Extent="0 191 0 191 0 0">
      <CellData Scalars="T">
        <DataArray type="Float32" Name="T" format="ascii" NumberOfComponents="1">
356.096
15000
14935.5
14829.4
14670.6
14449.2
14158
13793
13354.3
12845.7
12273.7
11647.5
10977.3
10274
9548.92
8813.72
8080.17
7360.21
6665.56
6007.25
5394.97
4836.48
4337.13
3899.69
3524.38
3209.29
2950.91
2744.79
2586.14
2470.31
2392.97
2350.04
2337.38
2350.33
2383.42
2430.34
2484.39
2539.22
2589.68
2632.57
2666.87
2693.56
2714.97
2734.04
2753.62
2775.96
2802.62
2834.54
2872.3
2916.51
2967.98
3027.91
3097.76
3178.97
3272.5
3378.25
3494.58
3618.12
3743.93
3866.04
3978.36
4075.56
4153.93
4211.98
4250.98
4275.33
4293.18
4316.63
4361.21
4443.72
4577.5
4765.81
4995.65
5236.77
5448.78
5594.85
5655.19
5633.16
5551.33
5440.9
5330.82
5241.65
5185.25
5167.97
5193.49
5262.61
5369.5
5497.57
5619.19
5701.88
5719.27
5661.17
5537.34
5373.33
5200.99
5048.84
4935.93
4870.42
4851.55
4872.91
4925.41
4999.2
5084.59
5172.34
5253.76
5320.86
5366.6
5385.25
5372.77
5327.1
5248.4
5138.95
5003.03
4846.48
4676.26
4499.83
4324.63
4157.52
4004.39
3869.81
3756.88
3667.15
3600.75
3556.47
3532.11
3524.66
3530.64
3546.43
3568.46
3593.45
3618.59
3641.63
3660.92
3675.5
3685.08
3690.06
3691.52
3691.21
3691.45
3695.05
3705.11
3724.71
3756.64
3803.02
3864.94
3942.18
4033.03
4134.22
4241.1
4347.87
4448.08
4535.16
4603.03
4646.71
4662.82
4649.94
4608.85
4542.42
4455.49
4354.36
4246.26
4138.73
4038.89
3952.89
3885.39
3839.18
3815.08
3811.91
3826.78
3855.4
3892.57
3932.68
3970.2
4000.12
4018.2
4021.21
4006.93
3974.38
3924.15
3859.36
3786.6
3715.99
3658.6
3620.61
3596.64
3566.59
3497.73
3346.85
3052.07
2503.29
1476.41
311.698
384.369
15000
14935
14828.2
14668.3
14445.3
14151.9
13784.2
13342.3
12830.1
12254.4
11624.6
10951.2
10245.4
9518.68
8782.76
8049.44
7330.52
6637.57
5981.39
5371.45
4815.32
4318.23
3882.83
3509.33
3195.78
2938.67
2733.52
2575.52
2459.97
2382.52
2339.09
2325.61
2337.58
2369.74
2416.07
2470.11
2525.66
2577.61
2622.61
2659.39
2688.57
2712.2
2732.98
2753.63
2776.43
2803
2834.43
2871.44
2914.71
2965.14
3023.92
3092.5
3172.34
3264.4
3368.65
3483.56
3605.91
3730.92
3852.76
3965.41
4063.58
4143.51
4203.63
4245.05
4271.94
4292.02
4316.81
4361.21
4441.52
4571.16
4754.21
4979.32
5218.15
5431.64
5583.03
5651.17
5637.31
5562.03
5455.46
5346.53
5256.56
5198.39
5179.12
5202.8
5270.2
5375.38
5501.75
5621.9
5703.72
5721.08
5663.73
5541.14
5378.37
5206.89
5055.04
4941.88
4875.73
4856.02
4876.48
4928.13
5001.16
5085.89
5173.08
5254.05
5320.82
5366.36
5384.93
5372.49
5327.01
5248.6
5139.56
5004.12
4848.11
4678.43
4502.53
4327.8
4161.08
4008.21
3873.74
3760.77
3670.86
3604.13
3559.43
3534.57
3526.56
3531.99
3547.24
3568.77
3593.34
3618.14
3640.94
3660.13
3674.74
3684.5
3689.82
3691.79
3692.17
3693.26
3697.86
3709.01
3729.76
3762.83
3810.25
3873.04
3950.9
4042.06
4143.19
4249.61
4355.54
4454.53
4540.1
4606.25
4648.11
4662.42
4647.88
4605.38
4537.91
4450.34
4349.02
4241.17
4134.28
4035.39
3950.55
3884.28
3839.25
3816.13
3813.66
3828.84
3857.33
3893.91
3932.96
3968.99
3997.07
4013.14
4014.3
3998.95
3966.95
3919.92
3861.7
3798.71
3739.39
3691.67
3658.28
3631.81
3592.95
3512.31
3351.02
3051.65
2512.19
1541.06
302.366
383.733
15000
14934.4
14826.4
14664.7
14439.1
14142.3
13770.1
13322.9
12804.5
12222.2
11585.9
10906.5
10195.7
9465.49
8727.71
7994.21
7276.66
6586.3
5933.58
5327.58
4775.53
4282.38
3850.62
3480.34
3169.57
2914.75
2711.39
2554.59
2439.59
2361.97
2317.67
2302.71
2312.86
2343.28
2388.44
2442.35
2499.12
2553.72
2602.56
2643.9
2677.77
2705.62
2729.71
2752.52
2776.3
2802.84
2833.43
2869.05
2910.58
2959.02
3015.61
3081.8
3159.01
3248.27
3349.64
3461.83
3581.88
3705.31
3826.56
3939.75
4039.65
4122.41
4186.31
4232.14
4263.6
4287.69
4314.94
4359.11
4435.7
4558.16
4732.03
4948.77
5183.42
5399.42
5560.24
5642.49
5643.62
5580.62
5481.51
5375.06
5283.84
5222.44
5199.37
5219.38
5283.33
5385.14
5508.27
5625.77
5706.14
5723.66
5667.99
5547.91
5387.61
5217.84
5066.56
4952.9
4885.47
4864.07
4882.74
4932.68
5004.17
5087.56
5173.63
5253.7
5319.8
5364.9
5383.3
5370.95
5325.8
5247.97
5139.7
5005.2
4850.22
4681.63
4506.77
4332.98
4167.02
4014.68
3880.48
3767.47
3677.24
3609.94
3564.44
3538.62
3529.57
3533.93
3548.13
3568.7
3592.44
3616.59
3638.93
3657.9
3672.55
3682.66
3688.65
3691.63
3693.34
3696.1
3702.63
3715.91
3738.89
3774.14
3823.56
3888.01
3967.04
4058.74
4159.69
4265.17
4369.38
4465.98
4548.57
4611.35
4649.66
4660.48
4642.76
4597.59
4528.14
4439.43
4337.83
4230.56
4125
4028.05
3945.51
3881.67
3838.94
3817.73
3816.59
3832.33
3860.53
3895.89
3932.82
3965.93
3990.51
4002.98
4001.27
3985.04
3955.76
3916.55
3871.86
3826.83
3786.25
3752.51
3723.11
3688.5
3631.89
3529.96
3350.62
3041.58
2503.98
1539.47
302.31
382.832
15000
14933.8
14824.9
14661.6
14433.8
14133.5
13756.8
13303.6
12778.2
12188
11543.4
10856
10138.1
9402.28
8660.82
7925.74
7208.6
6520.38
5871.09
5269.33
4721.89
4233.35
3805.94
3439.61
3132.28
2880.36
2679.26
2524.04
2409.8
2332.03
2286.64
2269.78
2277.54
2305.6
2349.05
2402.54
2460.64
2518.47
2572.2
2619.52
2659.69
2693.38
2722.2
2748.26
2773.71
2800.47
2830.14
2864
2903.2
2948.92
3002.47
3065.32
3138.88
3224.22
3321.58
3429.93
3546.7
3667.81
3788.05
3901.81
4003.87
4090.3
4159.09
4210.61
4247.96
4277.22
4307.69
4351.84
4424.12
4537.99
4700.63
4906.88
5136.01
5354.78
5527.3
5627.64
5648.59
5602.37
5513.99
5411.65
5319.31
5253.73
5225.35
5239.99
5298.8
5395.67
5514.29
5628.33
5707.11
5725.36
5672.47
5556.24
5399.63
5232.33
5081.85
4967.41
4898.06
4874.13
4890.11
4937.46
5006.62
5087.97
5172.33
5251.01
5316.06
5360.49
5378.57
5366.3
5321.6
5244.57
5137.4
5004.24
4850.76
4683.74
4510.42
4338.04
4173.24
4021.75
3888.01
3775.05
3684.46
3616.41
3569.86
3542.75
3532.25
3535.11
3547.84
3567.04
3589.58
3612.77
3634.44
3653.07
3667.79
3678.38
3685.32
3689.75
3693.4
3698.54
3707.84
3724.16
3750.29
3788.63
3840.85
3907.58
3988.17
4080.52
4181.08
4285.05
4386.68
4479.71
4557.95
4615.86
4649.08
4654.95
4632.75
4583.9
4511.81
4421.66
4319.9
4213.69
4110.25
4016.23
3937.13
3876.85
3837.44
3818.97
3819.66
3836.11
3863.73
3897.19
3930.95
3959.82
3979.61
3987.66
3983.39
3968.41
3946.12
3920.74
3895.92
3873.47
3852.52
3829.15
3796.53
3745.21
3663.32
3535.16
3335.61
3016.46
2479.47
1526.14
302.264
381.851
15000
14933.8
14824.8
14661.2
14432.4
14130.5
13750.9
13293.3
12761.9
12164.4
11511.2
10814.8
10088.2
9344.72
8597.19
7858.06
7139.03
6450.92
5803.4
5204.61
4660.87
4176.33
3752.91
3390.32
3086.36
2837.32
2638.56
2484.99
2371.58
2293.69
2247.17
2228.26
2233.33
2258.59
2299.83
2352.44
2411.55
2472.52
2531.38
2585.28
2632.67
2673.3
2708.01
2738.38
2766.34
2793.9
2822.88
2854.94
2891.53
2934.07
2983.99
3042.8
3111.94
3192.53
3285
3388.61
3501.26
3619.33
3738.07
3852.14
3956.44
4046.88
4121.11
4178.98
4222.86
4257.88
4292.11
4336.64
4404.88
4510.13
4661.1
4856.04
5078.73
5299.74
5484.43
5604.61
5648.2
5622.03
5547.3
5451.04
5358.34
5288.27
5253.49
5261.25
5313.32
5403.84
5516.94
5627.08
5704.49
5724.31
5675.44
5564.44
5412.65
5248.55
5099.06
4983.54
4911.62
4884.3
4896.65
4940.5
5006.48
5085.06
5167.06
5243.84
5307.44
5350.89
5368.5
5356.25
5312.06
5235.98
5130.18
4998.7
4847.14
4682.13
4510.82
4340.3
4177.09
4026.8
3893.8
3781.08
3690.2
3621.39
3573.66
3545.05
3532.84
3533.87
3544.78
3562.28
3583.31
3605.27
3626.07
3644.26
3659.03
3670.22
3678.37
3684.6
3690.68
3698.81
3711.57
3731.67
3761.7
3803.81
3859.41
3928.85
4011.18
4104.11
4203.92
4305.76
4403.91
4492.27
4564.9
4616.61
4643.46
4643.21
4615.58
4562.38
4487.31
4395.73
4294.15
4189.65
4089.22
3999.18
3924.61
3868.94
3833.73
3818.64
3821.49
3838.63
3865.28
3896.06
3925.57
3949.06
3963.19
3966.85
3961.6
3951.43
3941.33
3935.18
3933.57
3932.74
3925.32
3902.43
3856.04
3780.13
3669.65
3516.26
3300.08
2975.01
2443.4
1512.43
302.205
381.412
15000
14934.6
14826.9
14664.9
14437.8
14137.1
13757.9
13299.3
12764.9
12162.3
11502.1
10797
10060.9
9307.9
8551.7
7805.4
7081.11
6389.77
5740.9
5142.32
4599.94
4117.48
3696.52
3336.48
3034.98
2788.17
2591.27
2439.05
2326.32
2248.27
2200.63
2179.65
2181.95
2204.17
2242.78
2293.88
2353.28
2416.71
2480.2
2540.47
2595.23
2643.33
2684.76
2720.43
2751.9
2781.09
2810.01
2840.59
2874.65
2913.85
2959.82
3014.15
3078.34
3153.6
3240.52
3338.71
3446.51
3560.87
3677.5
3791.44
3897.7
3992.06
4071.81
4136.21
4186.86
4227.92
4266.3
4311.83
4376.82
4474.33
4614.26
4797.93
5013.51
5235.68
5431.65
5571.66
5639.04
5635.05
5576.46
5488.42
5396.66
5322.37
5280.56
5280.26
5324.21
5407.16
5513.92
5619.96
5696.42
5718.78
5675.26
5570.82
5424.99
5264.77
5116.43
4999.51
4924.33
4892.71
4900.42
4939.8
5001.7
5076.71
5155.68
5229.97
5291.68
5333.82
5350.73
5338.39
5294.72
5219.71
5115.47
4985.96
4836.67
4674.09
4505.24
4337.02
4175.85
4027.17
3895.27
3783.07
3692.12
3622.66
3573.78
3543.6
3529.53
3528.55
3537.41
3552.94
3572.21
3592.72
3612.48
3630.13
3644.93
3656.8
3666.32
3674.66
3683.55
3695.13
3711.87
3736.3
3770.74
3817.08
3876.39
3948.68
4032.73
4125.96
4224.53
4323.52
4417.28
4499.93
4565.85
4610.27
4629.74
4622.56
4588.93
4531.07
4453.04
4360.37
4259.59
4157.63
4061.2
3976.19
3907.15
3856.98
3826.68
3815.39
3820.53
3838.13
3863.24
3890.47
3914.69
3931.8
3939.78
3939.59
3935.34
3933.22
3938.79
3953.64
3973.21
3987.15
3982.64
3948.9
3880.44
3777.22
3641.09
3469.11
3243.9
2919.53
2398.18
1485.27
302.118
380.654
15000
14936.5
14831.5
14673.4
14451
14155.4
13780.8
13325.7
12792.7
12188.8
11524.3
10812.3
10067
9303.48
8536.39
7779.74
7046.39
6347.72
5693.42
5091.2
4546.69
4063.31
3642.25
3282.67
2981.92
2735.99
2539.92
2388.32
2275.81
2197.36
2148.53
2125.53
2125.05
2144.11
2179.71
2228.63
2287.36
2352.11
2419.11
2484.85
2546.47
2602.02
2650.62
2692.42
2728.43
2760.32
2790.11
2819.94
2851.89
2887.92
2929.9
2979.55
3038.48
3108.01
3188.92
3281.16
3383.51
3493.46
3607.31
3720.47
3828.14
3926.03
4011.04
4081.85
4139.28
4186.54
4229.49
4276.75
4339.63
4430.75
4560.84
4733.81
4941.85
5163.81
5369.32
5527.83
5618.8
5638.03
5597.51
5519.8
5430.61
5352.88
5303.93
5294.78
5329.5
5403.84
5503.61
5605.44
5681.48
5707.41
5670.56
5574.07
5435.32
5279.65
5132.62
5013.95
4934.75
4897.84
4899.85
4933.68
4990.51
5061.08
5136.28
5207.5
5266.82
5307.28
5323.24
5310.67
5267.47
5193.59
5091.07
4963.77
4817.06
4657.29
4491.31
4325.86
4167.18
4020.58
3890.21
3778.91
3688.2
3618.34
3568.46
3536.8
3520.87
3517.79
3524.47
3537.87
3555.21
3574.09
3592.67
3609.67
3624.47
3637.07
3648.09
3658.74
3670.7
3686.06
3707.11
3736.19
3775.33
3826.09
3889.16
3964.22
4049.71
4142.79
4239.48
4334.82
4423.3
4499.28
4557.55
4593.83
4605.25
4590.66
4550.83
4488.42
4407.81
4314.68
4215.54
4117.1
4025.7
3946.71
3884.11
3840.15
3815.22
3807.92
3815.22
3832.85
3855.71
3878.48
3896.42
3906.35
3907.9
3904.26
3901.99
3908.68
3929.03
3960.86
3993.76
4011.8
3999.47
3947.5
3855.46
3729.59
3576.81
3396.58
3171.46
2854.28
2345.8
1446.45
302.04
379.91
15000
14939.2
14838.6
14686.6
14471.9
14185.1
13819.5
13372.6
12845.9
12245.4
11580.7
10864.6
10111.7
9337.78
8558.51
7789.01
7043.15
6333.09
5668.98
5058.78
4508.04
4019.99
3595.56
3233.61
2931.26
2684.27
2487.49
2335.33
2222.18
2142.81
2092.54
2067.43
2064.18
2079.97
2112.22
2158.29
2215.29
2280.03
2349.05
2418.86
2486.28
2548.74
2604.54
2653.03
2694.55
2730.33
2762.18
2792.28
2822.9
2856.26
2894.47
2939.47
2993.01
3056.57
3131.14
3216.97
3313.33
3418.24
3528.54
3640.15
3748.5
3849.27
3939.05
4015.96
4080.05
4133.65
4181.58
4231.4
4293.42
4379.68
4501.41
4664.55
4864.83
5085.16
5297.98
5472.82
5586.11
5628.66
5607.51
5542.05
5457.25
5377.27
5321.54
5303.17
5327.88
5392.77
5485
5582.59
5658.73
5689.28
5660.46
5573.3
5442.79
5292.4
5146.83
5026.02
4941.99
4898.73
4893.85
4920.99
4971.71
5036.92
5107.58
5175.08
5231.5
5269.9
5284.63
5271.65
5228.85
5156.13
5055.45
4930.58
4786.73
4630.13
4467.43
4305.19
4149.48
4005.43
3877.06
3767.11
3677.05
3607.13
3556.53
3523.58
3505.91
3500.77
3505.24
3516.44
3531.72
3548.87
3566.15
3582.43
3597.2
3610.54
3623.13
3636.19
3651.38
3670.68
3696.22
3730.05
3773.95
3829.06
3895.73
3973.23
4059.67
4151.98
4246.03
4336.88
4419.19
4487.65
4537.52
4565.07
4568.06
4545.94
4500.05
4433.52
4350.99
4258.28
4161.78
4067.92
3982.58
3910.53
3855.09
3817.81
3798.47
3795.09
3804.22
3821.3
3841.17
3858.68
3869.66
3872.03
3867.03
3859.84
3858.61
3871.18
3900.23
3939.57
3974.24
3985.55
3958.6
3887.95
3778.42
3640.61
3483.47
3306.08
3089.28
2784.27
2291.12
1412.01
301.978
379.687
15000
14942.6
14847.5
14703.2
14498.5
14223.5
13870.9
13436.6
12920.9
12328.6
11668.2
10951.8
10194.1
9411.2
8619.86
7836.27
7075.48
6350.72
5672.93
5050.56
4489.43
3992.74
3561.29
3193.75
2887.01
2636.59
2437.13
2282.83
2167.86
2086.7
2034.46
2006.97
2000.8
2013.2
2041.79
2084.39
2138.66
2201.99
2271.39
2343.61
2415.39
2483.75
2546.35
2601.76
2649.57
2690.37
2725.58
2757.21
2787.56
2819.05
2854
2894.6
2942.8
3000.27
3068.26
3147.34
3237.2
3336.42
3442.43
3551.63
3659.78
3762.62
3856.51
3939.05
4009.57
4069.55
4122.85
4176.01
4238.35
4321.27
4436.15
4590.45
4782.92
5000.26
5218.03
5406.58
5540.25
5605.49
5604.48
5552.98
5474.48
5393.74
5332
5304.43
5318.68
5373.52
5457.81
5551.17
5627.96
5664.12
5644.63
5568.16
5447.02
5302.59
5158.62
5035.27
4945.59
4894.87
4881.92
4901.18
4944.71
5003.64
5068.97
5132.11
5185.12
5221.07
5234.29
5220.75
5178.27
5106.74
5008.02
4885.75
4745.04
4591.93
4432.89
4274.31
4122.02
3981.01
3855.13
3747
3658.03
3588.45
3537.49
3503.51
3484.31
3477.26
3479.59
3488.59
3501.8
3517.15
3533.08
3548.6
3563.29
3577.36
3591.54
3607.06
3625.52
3648.79
3678.8
3717.34
3765.82
3825.04
3894.9
3974.31
4061.05
4151.83
4242.4
4327.91
4403.23
4463.45
4504.34
4522.8
4517.24
4487.76
4436.27
4366.3
4282.76
4191.48
4098.7
4010.47
3932.1
3867.74
3819.95
3789.61
3775.81
3776.06
3786.55
3802.53
3818.91
3830.91
3835.08
3830.4
3819.42
3808.44
3805.91
3818.63
3846.92
3881.74
3906.45
3903.12
3860.02
3776.05
3659.51
3522.35
3372.54
3206.95
3004.17
2714.22
2237.68
1384.72
301.934
379.316
15000
14946.3
14857.2
14721.5
14528.1
14266.9
13929.5
13511.1
13010.5
12430.6
11778.9
11066.6
10307.7
9518.76
8716.98
7919.68
7143.11
6401.68
5707.4
5069.51
4494.31
3985.28
3543.27
3166.85
2852.76
2596.32
2391.96
2233.66
2115.35
2031.27
1976.24
1945.84
1936.44
1945.18
1969.81
2008.39
2059.04
2119.69
2187.88
2260.76
2335.22
2408.13
2476.71
2538.86
2593.4
2640.17
2680.01
2714.54
2745.92
2776.59
2809.06
2845.74
2888.83
2940.25
3001.52
3073.57
3156.5
3249.46
3350.41
3456.32
3563.33
3667.32
3764.51
3852.05
3928.63
3994.9
4053.81
4110.92
4174.58
4255.44
4364.82
4511.25
4695.97
4909.16
5129.63
5329.22
5481.05
5567.96
5587.46
5551.36
5481.05
5401.23
5334.55
5298.19
5301.89
5346.41
5422.56
5511.8
5589.72
5632.36
5623.28
5558.63
5447.81
5309.92
5167.65
5041.38
4945.28
4886.09
4863.94
4874.22
4909.55
4961.31
5020.59
5078.77
5127.91
5161.05
5172.51
5158.25
5116.06
5045.75
4949.09
4829.63
4692.31
4543
4387.98
4233.43
4084.99
3947.46
3824.52
3718.67
3631.24
3562.43
3511.47
3476.83
3456.36
3447.61
3447.95
3454.86
3466.05
3479.64
3494.21
3508.94
3523.55
3538.33
3554.08
3572.03
3593.71
3620.86
3655.19
3698.21
3750.96
3813.83
3886.34
3966.99
4053.27
4141.66
4227.9
4307.23
4374.82
4426.2
4457.73
4466.96
4452.98
4416.55
4360.1
4287.56
4204.01
4115.25
4027.23
3945.56
3874.93
3818.76
3778.88
3755.44
3746.93
3750.42
3761.86
3776.52
3789.61
3796.95
3795.89
3786.32
3771.34
3757.14
3751.03
3757.8
3775.78
3795.23
3801.05
3778.98
3721.77
3631.71
3518.11
3391.44
3256.79
3108.03
2921.82
2647.79
2188.91
1363.72
301.863
378.656
15000
14949.9
14866.6
14739.4
14557.3
14310.2
13989.2
13588.3
13105.1
12541.1
11902.2
11198.1
10442.5
9651.33
8842.23
8033.27
7241.79
6483.42
5771.34
5115.79
4523.85
3999.49
3543.85
3155.55
2831.29
2566.27
2354.73
2190.45
2067.13
1978.76
1919.89
1885.8
1872.64
1877.37
1897.68
1931.77
1978.05
2034.93
2100.47
2172.33
2247.72
2323.61
2397
2465.28
2526.57
2579.94
2625.48
2664.25
2698.03
2729.16
2760.18
2793.68
2832.12
2877.71
2932.27
2997.1
3072.77
3158.92
3254.13
3355.88
3460.78
3564.93
3664.47
3756.23
3838.32
3910.61
3975.16
4036.59
4102.28
4182.12
4287.11
4426.53
4603.64
4811.79
5033.02
5241.17
5408.92
5516.21
5556.25
5536.71
5476.35
5399.22
5328.96
5284.63
5278.13
5312.45
5380.56
5465.9
5545.35
5595
5596.99
5544.79
5444.84
5313.82
5173.29
5043.82
4940.74
4872.31
4840.07
4840.48
4866.78
4910.63
4963.22
5015.93
5060.8
5090.84
5100.36
5085.29
5043.37
4974.35
4879.9
4763.43
4629.74
4484.5
4333.79
4183.6
4039.37
3905.69
3786.07
3682.91
3597.42
3529.77
3479.21
3444.24
3422.84
3412.67
3411.26
3416.26
3425.57
3437.47
3450.75
3464.72
3479.25
3494.72
3511.99
3532.28
3557.06
3587.92
3626.32
3673.47
3730.04
3796.02
3870.51
3951.64
4036.62
4121.79
4202.86
4275.25
4334.47
4376.57
4398.51
4398.56
4376.48
4333.67
4273.05
4198.88
4116.34
4031.1
3948.77
3874.4
3812.01
3764.27
3732.26
3715.47
3711.89
3718.3
3730.64
3744.5
3755.67
3760.77
3757.93
3747.41
3731.95
3716.27
3705.32
3701.5
3702.08
3698.81
3680.67
3638.74
3570.3
3479.57
3374.8
3263.37
3146.7
3015.82
2846
2587.11
2144.08
1337.69
301.784
378.47
15000
14952.9
14874.5
14754.5
14582.6
14348.3
14042.8
13659.5
13194.6
12648.5
12025.4
11333.7
10585.9
9797.09
8984.98
8167.94
7364.14
6590.31
5860.79
5186.98
4576.9
4035.28
3563.72
3161.14
2824.32
2548.42
2327.57
2155.39
2025.37
1931.25
1867.34
1828.65
1811.04
1811.25
1826.84
1856
1897.33
1949.56
2011.25
2080.56
2155.19
2232.36
2309.1
2382.5
2450.12
2510.28
2562.28
2606.43
2644
2676.96
2707.76
2739.08
2773.59
2813.77
2861.81
2919.4
2987.57
3066.49
3155.3
3252.08
3353.9
3457.14
3558
3653.07
3739.92
3817.75
3887.75
3953.63
4021.82
4101.37
4202.88
4336.05
4505.79
4708.24
4928.61
5143.04
5324.46
5450.64
5510.88
5508.72
5459.92
5387.35
5315.17
5264.15
5248.35
5273.07
5333.59
5415.34
5496.51
5553.25
5566.3
5526.55
5437.47
5313.35
5174.56
5041.81
4931.51
4853.45
4810.64
4800.62
4817.32
4852.74
4898.17
4945.03
4985.33
5012.07
5019.54
5003.63
4962.03
4894.4
4802.31
4689.03
4559.17
4418.23
4272.09
4126.5
3986.72
3857.15
3741.15
3640.96
3557.74
3491.59
3441.78
3406.85
3384.86
3373.59
3370.73
3374.08
3381.71
3392.1
3404.2
3417.48
3431.95
3448.1
3466.82
3489.35
3517.06
3551.37
3593.52
3644.37
3704.25
3772.7
3848.45
3929.29
4012.15
4093.26
4168.39
4233.18
4283.55
4316.07
4328.39
4319.46
4289.74
4241.22
4177.28
4102.41
4021.82
3940.96
3865.01
3798.41
3744.47
3705.1
3680.68
3670.15
3671.16
3680.47
3694.35
3709
3721.05
3727.9
3728.09
3721.52
3709.44
3694.02
3677.31
3659.67
3638.62
3609.07
3565.42
3504.41
3427.03
3338.12
3243.78
3147.78
3048.1
2933.46
2778.24
2532.75
2103.23
1309.32
301.701
378.683
15000
14954.9
14879.7
14764.9
14600.4
14376.2
14083.8
13716
13268.7
12741.1
12135.8
11459.9
10724.2
9942.92
9132.95
8312.66
7500.64
6714.44
5969.51
5278.39
4650.21
4090.61
3601.89
3183.45
2832.31
2543.73
2311.81
2130.05
1991.77
1890.52
1820.37
1776.07
1753.22
1748.33
1758.74
1782.56
1818.45
1865.36
1922.23
1987.71
2060.01
2136.78
2215.24
2292.41
2365.49
2432.16
2490.94
2541.34
2583.9
2620.07
2652.04
2682.38
2713.91
2749.38
2791.31
2841.8
2902.38
2973.74
3055.62
3146.66
3244.43
3345.69
3446.75
3544.05
3634.77
3717.46
3792.53
3862.78
3933.7
4013.48
4112.22
4239.78
4402.4
4598.62
4816.7
5035.27
5228.06
5371.37
5451.14
5466.92
5431.19
5365.16
5293.1
5237.14
5213.46
5229.66
5283.32
5361.84
5444.68
5508.1
5531.55
5503.57
5424.85
5307.4
5170.37
5034.49
4917.16
4829.57
4776.16
4755.56
4762.42
4789.11
4827.12
4867.89
4903.45
4926.79
4932.18
4915.46
4874.28
4808.2
4718.65
4608.74
4482.9
4346.43
4204.99
4064.16
3928.96
3803.64
3691.4
3594.38
3513.64
3449.27
3400.5
3365.93
3343.7
3331.68
3327.69
3329.69
3335.93
3345.02
3356.11
3368.82
3383.29
3400.11
3420.23
3444.85
3475.28
3512.77
3558.29
3612.39
3675.01
3745.3
3821.6
3901.37
3981.35
4057.67
4126.2
4182.88
4224.04
4246.87
4249.68
4232.11
4195.31
4141.81
4075.36
4000.63
3922.77
3846.92
3777.77
3719.11
3673.5
3642.15
3624.83
3620.09
3625.54
3638.24
3655.11
3673.25
3690.11
3703.52
3711.66
3713
3706.39
3691.03
3666.44
3632.08
3587.15
3530.81
3462.94
3385.14
3300.87
3214.61
3129.93
3047.36
2962.06
2861.07
2718.23
2484.18
2065.48
1279.21
301.64
379.382
15000
14955.4
14881.3
14768.5
14607.6
14389.4
14105.7
13750
13317.9
12807.8
12221.2
11563.7
10844.2
10075.5
9273.33
8455.48
7640.51
6846.44
6089.62
5383.65
4738.83
4161.83
3655.84
3220.91
2854.49
2552.08
2307.84
2115.22
1967.43
1857.87
1780.4
1729.54
1700.67
1690.05
1694.81
1712.91
1742.97
1784.04
1835.35
1895.96
1964.58
2039.34
2117.83
2197.21
2274.49
2346.91
2412.31
2469.38
2517.85
2558.5
2593.01
2623.74
2653.49
2685.17
2721.64
2765.41
2818.48
2882.1
2956.59
3041.17
3133.97
3232.14
3332.22
3430.6
3524.16
3610.89
3690.47
3764.82
3838.52
3918.87
4015.35
4137.82
4293.47
4482.95
4697.36
4917.94
5119.73
5278.22
5376.6
5410.67
5389.46
5332.11
5262.49
5203.79
5174.06
5183.18
5230.91
5306.57
5390.82
5460.09
5492.8
5475.43
5406.23
5295.09
5159.95
5021.41
4897.62
4801.07
4737.44
4706.48
4703.55
4721.48
4751.97
4786.56
4817.32
4837.26
4840.61
4823.19
4782.57
4718.2
4631.36
4524.99
4403.31
4271.41
4134.75
3998.69
3868.1
3747.03
3638.58
3544.79
3466.64
3404.2
3356.7
3322.78
3300.63
3288.21
3283.45
3284.46
3289.59
3297.67
3307.95
3320.23
3334.78
3352.28
3373.72
3400.31
3433.25
3473.61
3522.12
3579
3643.81
3715.32
3791.48
3869.5
3945.9
4016.81
4078.25
4126.44
4158.23
4171.4
4164.95
4139.21
4095.94
4038.17
3969.97
3896.1
3821.54
3751.08
3688.85
3637.95
3600.26
3576.31
3565.44
3566.05
3576.01
3593.06
3615.03
3639.96
3665.75
3689.89
3709.12
3719.54
3717.11
3698.54
3662.11
3608.08
3538.66
3457.47
3369.09
3278.41
3189.99
3107.2
3031.23
2959.97
2886.57
2796.92
2664.56
2440.35
2031.78
1264.9
301.591
379.644
15000
14954.2
14878.4
14763.8
14601.8
14384.1
14103.7
13755
13334.1
12839.2
12271
11633.3
10933.5
10182.2
9393.71
8584.53
7772.7
6976.35
6212.38
5495.33
4836.61
4244.04
3721.81
3270.77
2888.99
2572.31
2315.11
2110.88
1952.76
1834.04
1748.4
1690.21
1654.63
1637.7
1636.35
1648.37
1672.28
1707.15
1752.36
1807.31
1871.13
1942.46
2019.33
2099.21
2179.14
2256.14
2327.49
2391.17
2446.06
2492.16
2530.51
2563.04
2592.35
2621.42
2653.33
2690.98
2736.83
2792.69
2859.45
2936.95
3023.89
3117.89
3215.78
3314.02
3409.29
3499.11
3582.51
3660.58
3736.97
3818.07
3912.64
4030.36
4179.12
4361.32
4570.69
4791.19
4999.57
5171.16
5287.03
5339.53
5334.2
5287.71
5223.06
5164.04
5130.37
5134.01
5176.84
5249.97
5335.25
5409.39
5450.02
5441.97
5381.39
5276.24
5143.26
5002.76
4873.45
4768.79
4695.67
4654.83
4642.41
4651.71
4674.72
4703.15
4729.15
4745.73
4747.15
4729.17
4689.28
4626.79
4542.82
4440.12
4322.68
4195.39
4063.48
3932.12
3806.02
3689.1
3584.34
3493.71
3418.16
3357.72
3311.65
3278.6
3256.81
3244.32
3239.16
3239.5
3243.87
3251.2
3260.92
3272.93
3287.65
3305.85
3328.57
3356.98
3392.22
3435.16
3486.29
3545.49
3611.96
3684.11
3759.54
3835.19
3907.46
3972.48
4026.45
4065.97
4088.38
4092.09
4076.76
4043.39
3994.3
3932.96
3863.67
3791.19
3720.3
3655.33
3599.83
3556.24
3525.76
3508.39
3503.21
3508.75
3523.43
3545.91
3575.07
3609.56
3647.12
3683.85
3714.1
3731.03
3728.11
3700.81
3648.01
3572.44
3480.02
3378.39
3275.26
3177.09
3088.23
3010.52
2943.05
2881.81
2818.62
2738.7
2615.48
2400.16
2001.92
1252.56
301.533
379.492
15000
14951.1
14870.6
14750.2
14581.7
14358.5
14075.1
13727.3
13312.4
12829.1
12277.4
11660.1
10982.3
10252.7
9483.29
8689.01
7886.81
7094.41
6328.92
5605.61
4936.87
4331.65
3795.24
3329.44
2933.06
2602.46
2332.32
2116.27
1947.48
1819.14
1724.85
1658.81
1616.01
1592.33
1584.5
1590.15
1607.67
1636.08
1674.83
1723.53
1781.67
1848.35
1922.09
2000.75
2081.62
2161.66
2237.85
2307.55
2368.89
2421.04
2464.27
2499.91
2530.2
2558.01
2586.51
2618.89
2658.05
2706.31
2765.18
2835.1
2915.38
3004.17
3098.68
3195.53
3291.32
3383.22
3469.65
3550.94
3629.81
3711.72
3804.64
3917.89
4059.77
4234.19
4437.26
4655.7
4868.29
5050.83
5182.86
5253.68
5265.36
5231.79
5174.59
5117.75
5082.3
5082.1
5121.05
5191.97
5277.91
5355.97
5403.3
5403.43
5350.74
5251.46
5121.11
4979.56
4845.79
4734.1
4652.36
4602.28
4580.77
4581.69
4597.37
4619.72
4641.01
4654.33
4653.94
4635.54
4596.52
4536.07
4455.11
4356.15
4242.98
4120.25
3992.98
3866.17
3744.36
3631.37
3530.11
3442.49
3369.45
3311.01
3266.44
3234.42
3213.23
3200.95
3195.69
3195.7
3199.62
3206.49
3215.85
3227.77
3242.76
3261.68
3285.63
3315.75
3353.08
3398.33
3451.71
3512.82
3580.48
3652.75
3726.92
3799.71
3867.4
3926.2
3972.51
4003.32
4016.52
4011.1
3987.38
3946.99
3892.75
3828.49
3758.66
3687.95
3620.85
3561.24
3512.05
3475.07
3450.91
3439.18
3438.86
3448.83
3468.28
3496.84
3534.21
3579.19
3628.53
3676.19
3713.64
3731.44
3721.65
3680.21
3608.3
3512.08
3401.06
3285.64
3174.98
3075.49
2990.4
2919.86
2861.33
2809.54
2755.57
2684.36
2569.35
2362.21
1973.16
1233.27
301.47
378.959
15000
14946.3
14858.5
14728.2
14548.4
14313.7
14020.6
13667.3
13252.5
12776
12237.9
11639.8
10985
10280
9534.17
8760.42
7974.1
7192.02
6431.1
5707.01
5032.93
4418.88
3871.25
3392.89
2983.46
2639.97
2357.54
2130.04
1950.71
1812.76
1709.69
1635.59
1585.33
1554.64
1540.1
1539.19
1550.16
1571.95
1604.01
1646.08
1697.89
1758.94
1828.21
1904.03
1984.05
2065.38
2144.89
2219.55
2286.86
2345.19
2393.98
2433.85
2466.5
2494.48
2520.91
2549.13
2582.38
2623.48
2674.49
2736.51
2809.47
2892.11
2982.1
3076.34
3171.44
3264.34
3352.96
3436.88
3517.96
3600.68
3692.16
3801.2
3936.31
4102.58
4298.32
4512.92
4727.49
4918.78
5065.41
5154.09
5183.53
5164.6
5117.15
5064.86
5029.71
5027.26
5063.28
5132.31
5218.61
5299.87
5352.99
5360.5
5315.27
5221.99
5094.92
4953.31
4816.25
4698.61
4609.17
4550.54
4520.4
4513.22
4521.72
4538.09
4554.77
4564.91
4562.79
4544.08
4506.06
4447.74
4369.84
4274.65
4165.71
4047.43
3924.64
3802.14
3684.37
3575.04
3477.02
3392.19
3321.49
3264.97
3221.91
3191.01
3170.59
3158.76
3153.66
3153.63
3157.36
3164.01
3173.24
3185.21
3200.56
3220.24
3245.36
3277.08
3316.31
3363.61
3418.93
3481.56
3549.98
3621.92
3694.4
3763.92
3826.73
3879.1
3917.71
3939.95
3944.22
3930.14
3898.62
3851.87
3793.15
3726.56
3656.64
3587.93
3524.59
3470.01
3426.54
3395.37
3376.61
3369.59
3373.34
3387.16
3410.95
3445.14
3489.82
3543.34
3600.91
3654.13
3692.06
3703.75
3681.43
3623.05
3532.94
3420.63
3298.17
3177.16
3066.58
2971.7
2894.19
2832.74
2783.67
2741.03
2695.61
2632.32
2524.8
2325.14
1944.05
1210.58
301.414
377.925
15000
14940.3
14843.2
14700.3
14505.3
14254.3
13946.1
13581.1
13160.5
12685.3
12156.4
11574.6
10942
10262.4
9542.85
8793.81
8028.59
7262.66
6512.27
5793.07
5118.8
4500.33
3945.12
3457.08
3036.8
2682.08
2388.55
2150.44
1961.18
1814.02
1702.41
1620.39
1562.71
1524.98
1503.68
1496.16
1500.53
1515.66
1540.93
1576.13
1621.17
1675.83
1739.52
1811.03
1888.45
1969.21
2050.26
2128.41
2200.7
2264.81
2319.42
2364.33
2400.55
2430.14
2455.96
2481.34
2509.75
2544.39
2587.87
2641.89
2707.06
2782.77
2867.21
2957.66
3050.88
3143.68
3233.58
3319.51
3402.46
3485.96
3576.19
3681.36
3809.94
3967.95
4155.61
4364.91
4579.42
4777.28
4936.74
5042.43
5089.91
5086.94
5051.19
5005.58
4972.65
4969.39
5003.35
5070.78
5157.28
5241.25
5299.58
5314.04
5276.23
5189.32
5066.32
4925.73
4786.52
4664.02
4567.76
4501.22
4462.9
4447.88
4449.36
4459.84
4471.94
4478.94
4475.13
4456.15
4419.15
4362.98
4288.14
4196.67
4091.86
3977.87
3859.34
3740.91
3626.87
3520.91
3425.84
3343.56
3275.02
3220.29
3178.69
3148.94
3129.37
3118.14
3113.39
3113.53
3117.29
3123.91
3133.17
3145.33
3161.12
3181.56
3207.83
3241.03
3282
3331.1
3388.06
3451.86
3520.66
3591.88
3662.3
3728.25
3785.96
3831.84
3862.83
3876.75
3872.52
3850.34
3811.69
3759.27
3696.73
3628.36
3558.7
3492.12
3432.41
3382.49
3344.15
3318.07
3303.99
3301.02
3308.26
3325.33
3352.58
3390.73
3439.68
3496.87
3555.96
3606.81
3637.29
3636.6
3598.66
3524.22
3420.64
3299.74
3174.52
3056.21
2952.47
2866.93
2799.76
2748.58
2709.13
2675.22
2637.67
2581.56
2480.82
2288
1914.59
1194.95
301.375
377.35
15000
14934.1
14827
14670.5
14458.6
14188.8
13862
13480.9
13049.1
12569.6
12044.4
11474.4
10860.3
10204.4
9511.31
8788.85
8048.13
7302.82
6568.07
5859.08
5189.73
4571.51
4012.76
3518.38
3089.95
2726.09
2423.1
2175.63
1977.4
1821.75
1702.18
1612.65
1547.86
1503.32
1475.42
1461.38
1459.25
1467.76
1486.25
1514.49
1552.49
1600.23
1657.45
1723.39
1796.6
1874.93
1955.61
2035.47
2111.33
2180.37
2240.56
2290.91
2331.64
2364.15
2390.86
2414.91
2439.78
2468.97
2505.53
2551.76
2608.95
2677.13
2755.15
2840.74
2930.94
3022.54
3112.77
3200
3284.42
3368.62
3457.84
3559.53
3681.99
3831.87
4011.07
4213.96
4426.64
4628.96
4799.35
4920.86
4986.22
5000.04
4977.54
4940.42
4911.38
4908.57
4941.22
5007.33
5093.93
5180.32
5243.58
5264.92
5234.77
5154.84
5036.82
4898.36
4758.13
4631.79
4529.54
4455.71
4409.6
4386.97
4381.52
4386.13
4393.65
4397.46
4391.92
4372.61
4336.58
4282.49
4210.61
4122.74
4021.9
3912.03
3797.52
3682.89
3572.32
3469.43
3377.03
3297.05
3230.45
3177.36
3137.13
3108.5
3089.81
3079.24
3074.96
3075.38
3079.31
3086.05
3095.44
3107.87
3124.15
3145.37
3172.74
3207.33
3249.87
3300.55
3358.86
3423.5
3492.33
3562.49
3630.53
3692.68
3745.17
3784.57
3808.13
3814.09
3801.88
3772.24
3727.18
3669.82
3604.1
3534.46
3465.38
3401.01
3344.79
3299.2
3265.6
3244.26
3234.6
3235.61
3246.33
3266.39
3296.04
3335.66
3384.39
3438.63
3490.98
3530.83
3546.64
3529.4
3475.72
3389.13
3279.01
3157.89
3038.1
2929.31
2837.29
2764.02
2708.54
2667.89
2637.66
2611.77
2581.26
2531.5
2436.79
2250.34
1885.36
1180.49
301.322
377.477
15000
14928.5
14812.6
14643.6
14415.8
14127.7
13781.6
13382.3
12935.8
12447.1
11919.6
11355
10753.8
10117
9447.32
8750.37
8034.91
7312.62
6597.1
5902.62
5242.78
4629.28
4071.08
3573.94
3140.33
2769.75
2459.2
2203.89
1997.88
1834.72
1707.97
1611.59
1540.23
1489.31
1455.14
1434.87
1426.44
1428.52
1440.34
1461.66
1492.49
1532.97
1583.08
1642.42
1710.01
1784.19
1862.57
1942.21
2019.92
2092.6
2157.65
2213.37
2259.18
2295.7
2324.73
2348.99
2371.85
2396.87
2427.46
2466.44
2515.73
2576.08
2647.01
2726.82
2812.91
2902.21
2991.8
3079.56
3164.99
3249.76
3338.16
3436.83
3553.7
3695.83
3866.47
4062.18
4271.56
4476.41
4655.78
4791.68
4874.34
4905.33
4897.18
4870.03
4846.3
4845.01
4876.98
4941.97
5028.6
5117.24
5185.35
5213.72
5191.69
5119.55
5007.57
4872.38
4732.28
4603.09
4495.63
4415.05
4361.48
4331.4
4319.07
4317.76
4320.58
4321.08
4313.66
4293.86
4258.63
4206.46
4137.38
4052.93
3955.87
3849.89
3739.2