<?xml version="1.0"?>
<VTKFile type="ImageData" version="0.1" byte_order="LittleEndian">
  <ImageData Origin="0 0 0" Spacing="1e-05 1e-05 1e-05" WholeExtent="0 191 0 191 0 0">
    <Piece Extent="0 191 0 191 0 0">
      <CellData Scalars="T">
        <DataArray type="Float32" Name="T" format="ascii" NumberOfComponents="1">
494.213
15000
15000
15000
15000
15000
15000
15000
14999.9
14999.9
14999.8
14999.8
14999.7
14999.5
14999.3
14999.1
14998.7
14998.2
14997.6
14996.8
14995.7
14994.3
14992.5
14990.3
14987.4
14983.8
14979.3
14973.7
14966.7
14958.2
14947.9
14935.3
14920.2
14902
14880.3
14854.7
14824.5
14789.1
14747.8
14700
14644.9
14581.7
14509.7
14428
14335.9
14232.5
14117.2
13989.1
13847.6
13692.1
13522.1
13337.2
13137.1
12921.7
12691
12445.1
12184.3
11909.2
11620.4
11318.7
11005.2
10680.9
10347.2
10005.5
9657.29
9304.31
8948.23
8590.81
8233.85
7879.14
7528.43
7183.46
6845.87
6517.21
6198.93
5892.34
5598.62
5318.79
5053.72
4804.11
4570.49
4353.23
4152.56
3968.53
3801.07
3649.97
3514.92
3395.47
3291.13
3201.29
3125.32
3062.53
3012.18
2973.53
2945.85
2928.38
2920.39
2921.17
2930.02
2946.29
2969.35
2998.61
3033.51
3073.53
3118.18
3167.01
3219.59
3275.51
3334.41
3395.91
3459.69
3525.41
3592.74
3661.39
3731.05
3801.41
3872.17
3943.04
4013.71
4083.89
4153.29
4221.62
4288.58
4353.9
4417.31
4478.55
4537.36
4593.53
4646.83
4697.07
4744.08
4787.71
4827.84
4864.36
4897.19
4926.29
4951.61
4973.17
4990.96
5005.02
5015.39
5022.15
5025.35
5025.08
5021.43
5014.49
5004.36
4991.15
4974.94
4955.85
4933.97
4909.42
4882.29
4852.71
4820.79
4786.66
4750.45
4712.32
4672.42
4630.94
4588.07
4544.01
4499
4453.28
4407.1
4360.74
4314.48
4268.61
4223.42
4179.2
4136.26
4094.85
4055.26
4017.73
3982.47
3949.69
3919.53
3892.09
3867.37
3845.26
3825.44
3807.22
3789.28
3769.04
3741.7
3698.11
3620.86
3476.61
3200.58
2664.06
1600.41
318.147
1004.73
15000
15000
15000
15000
15000
15000
15000
14999.9
14999.9
14999.8
14999.8
14999.7
14999.5
14999.3
14999.1
14998.7
14998.2
14997.6
14996.8
14995.7
14994.3
14992.5
14990.3
14987.4
14983.8
14979.3
14973.7
14966.8
14958.3
14947.9
14935.3
14920.2
14902
14880.4
14854.8
14824.5
14789.1
14747.9
14700.1
14645
14581.9
14509.9
14428.2
14336.1
14232.8
14117.4
13989.4
13847.9
13692.4
13522.5
13337.6
13137.6
12922.2
12691.5
12445.7
12185
11909.9
11621.1
11319.4
11005.9
10681.6
10347.9
10006.1
9657.94
9304.92
8948.8
8591.33
8234.31
7879.51
7528.72
7183.65
6845.95
6517.17
6198.75
5892.03
5598.16
5318.18
5052.94
4803.16
4569.37
4351.94
4151.08
3966.87
3799.23
3647.95
3512.71
3393.08
3288.56
3198.56
3122.42
3059.46
3008.95
2970.15
2942.32
2924.7
2916.57
2917.21
2925.94
2942.08
2965.03
2994.17
3028.97
3068.88
3113.44
3162.18
3214.67
3270.51
3329.33
3390.77
3454.49
3520.15
3587.44
3656.05
3725.68
3796.02
3866.77
3937.63
4008.31
4078.51
4147.94
4216.3
4283.31
4348.69
4412.16
4473.47
4532.36
4588.62
4642.01
4692.35
4739.46
4783.2
4823.43
4860.06
4893
4922.2
4947.64
4969.29
4987.18
5001.33
5011.79
5018.62
5021.89
5021.69
5018.09
5011.21
5001.12
4987.94
4971.76
4952.69
4930.83
4906.28
4879.16
4849.58
4817.66
4783.53
4747.32
4709.19
4669.29
4627.8
4584.93
4540.88
4495.87
4450.15
4403.99
4357.64
4311.4
4265.54
4220.38
4176.19
4133.27
4091.89
4052.33
4014.82
3979.6
3946.85
3916.72
3889.3
3864.6
3842.52
3822.72
3804.53
3786.61
3766.44
3739.23
3695.98
3619.67
3478.22
3211.25
2706.76
1766.32
342.235
1003.8
15000
15000
15000
15000
15000
15000
15000
14999.9
14999.9
14999.8
14999.8
14999.7
14999.5
14999.3
14999.1
14998.7
14998.2
14997.6
14996.8
14995.7
14994.3
14992.6
14990.3
14987.4
14983.8
14979.3
14973.7
14966.8
14958.3
14947.9
14935.4
14920.2
14902.1
14880.5
14854.9
14824.7
14789.3
14748.1
14700.3
14645.2
14582.1
14510.2
14428.6
14336.5
14233.3
14118
13990
13848.6
13693.2
13523.3
13338.5
13138.5
12923.2
12692.6
12446.8
12186.2
11911.1
11622.4
11320.8
11007.2
10683
10349.2
10007.5
9659.23
9306.15
8949.94
8592.37
8235.21
7880.27
7529.3
7184.04
6846.11
6517.09
6198.42
5891.42
5597.25
5316.96
5051.4
4801.29
4567.15
4349.36
4148.15
3963.57
3795.57
3643.93
3508.33
3388.35
3283.47
3193.12
3116.65
3053.35
3002.52
2963.42
2935.29
2917.38
2908.97
2909.35
2917.81
2933.71
2956.42
2985.34
3019.92
3059.63
3103.99
3152.55
3204.87
3260.55
3319.23
3380.53
3444.12
3509.68
3576.88
3645.41
3714.98
3785.27
3856
3926.86
3997.55
4067.79
4137.26
4205.7
4272.8
4338.28
4401.88
4463.33
4522.38
4578.81
4632.39
4682.92
4730.24
4774.19
4814.63
4851.47
4884.63
4914.05
4939.69
4961.54
4979.62
4993.96
5004.59
5011.57
5014.99
5014.91
5011.43
5004.65
4994.64
4981.53
4965.41
4946.38
4924.55
4900.03
4872.92
4843.35
4811.43
4777.29
4741.07
4702.93
4663.03
4621.54
4578.67
4534.62
4489.62
4443.92
4397.78
4351.46
4305.25
4259.43
4214.31
4170.17
4127.3
4085.98
4046.47
4009.03
3973.86
3941.17
3911.09
3883.73
3859.08
3837.04
3817.28
3799.14
3781.28
3761.21
3734.22
3691.45
3616.34
3477.85
3218.31
2731.61
1824.16
343.819
1003.2
15000
15000
15000
15000
15000
15000
15000
14999.9
14999.9
14999.8
14999.8
14999.7
14999.5
14999.3
14999.1
14998.7
14998.2
14997.6
14996.8
14995.7
14994.3
14992.6
14990.3
14987.4
14983.8
14979.3
14973.7
14966.8
14958.3
14948
14935.5
14920.3
14902.2
14880.6
14855
14824.9
14789.5
14748.3
14700.6
14645.6
14582.6
14510.7
14429.1
14337.2
14234
14118.8
13990.9
13849.5
13694.3
13524.5
13339.8
13139.9
12924.8
12694.2
12448.5
12188
11913
11624.3
11322.8
11009.3
10685
10351.2
10009.4
9661.15
9307.97
8951.64
8593.91
8236.57
7881.4
7530.18
7184.62
6846.38
6517.01
6197.95
5890.53
5595.93
5315.18
5049.14
4798.53
4563.87
4345.56
4143.82
3958.7
3790.16
3637.97
3501.84
3381.32
3275.93
3185.06
3108.08
3044.3
2992.99
2953.42
2924.84
2906.5
2897.68
2897.65
2905.73
2921.26
2943.61
2972.19
3006.45
3045.86
3089.93
3138.21
3190.27
3245.71
3304.16
3365.26
3428.67
3494.06
3561.12
3629.54
3699.01
3769.24
3839.93
3910.78
3981.49
4051.77
4121.32
4189.86
4257.09
4322.73
4386.52
4448.18
4507.47
4564.15
4618
4668.82
4716.44
4760.7
4801.46
4838.62
4872.1
4901.83
4927.78
4949.94
4968.31
4982.91
4993.8
5001.02
5004.65
5004.77
5001.46
4994.82
4984.94
4971.94
4955.9
4936.94
4915.15
4890.67
4863.58
4834.02
4802.1
4767.96
4731.74
4693.59
4653.68
4612.19
4569.32
4525.27
4480.29
4434.61
4388.5
4342.22
4296.06
4250.31
4205.25
4161.18
4118.39
4077.15
4037.73
4000.37
3965.29
3932.69
3902.69
3875.4
3850.83
3828.85
3809.16
3791.08
3773.3
3753.36
3726.59
3684.32
3610.27
3474.07
3219.06
2739.84
1840.21
344.579
1002.22
15000
15000
15000
15000
15000
15000
15000
14999.9
14999.9
14999.8
14999.8
14999.7
14999.5
14999.3
14999.1
14998.7
14998.2
14997.6
14996.8
14995.7
14994.3
14992.6
14990.3
14987.5
14983.9
14979.4
14973.8
14966.9
14958.4
14948.1
14935.6
14920.5
14902.4
14880.8
14855.2
14825.1
14789.8
14748.7
14701
14646.1
14583.1
14511.3
14429.9
14338
14234.9
14119.8
13992
13850.8
13695.7
13526
13341.5
13141.8
12926.7
12696.3
12450.8
12190.3
11915.5
11626.9
11325.4
11011.9
10687.7
10353.9
10012.1
9663.68
9310.39
8953.9
8595.96
8238.37
7882.92
7531.36
7185.43
6846.76
6516.93
6197.37
5889.41
5594.24
5312.88
5046.21
4794.94
4559.61
4340.61
4138.16
3952.34
3783.08
3630.18
3493.34
3372.12
3266.03
3174.48
3096.83
3032.4
2980.46
2940.28
2911.1
2892.19
2882.81
2882.25
2889.81
2904.85
2926.73
2954.86
2988.68
3027.68
3071.36
3119.27
3170.98
3226.1
3284.25
3345.08
3408.24
3473.41
3540.28
3608.54
3677.89
3748.03
3818.66
3889.49
3960.22
4030.55
4100.2
4168.87
4236.27
4302.12
4366.14
4428.08
4487.67
4544.68
4598.89
4650.1
4698.11
4742.78
4783.96
4821.54
4855.44
4885.59
4911.96
4934.51
4953.26
4968.22
4979.45
4986.98
4990.9
4991.27
4988.19
4981.75
4972.05
4959.18
4943.26
4924.39
4902.67
4878.23
4851.17
4821.63
4789.72
4755.57
4719.34
4681.19
4641.27
4599.78
4556.91
4512.88
4467.92
4422.28
4376.21
4329.98
4283.89
4238.21
4193.24
4149.27
4106.58
4065.45
4026.14
3988.9
3953.94
3921.44
3891.55
3864.36
3839.88
3818
3798.39
3780.38
3762.7
3742.88
3716.33
3674.49
3601.31
3466.76
3214.69
2739.83
1844.62
344.915
995.544
15000
15000
15000
15000
15000
15000
15000
14999.9
14999.9
14999.8
14999.8
14999.7
14999.5
14999.3
14999.1
14998.7
14998.2
14997.6
14996.8
14995.7
14994.4
14992.6
14990.3
14987.5
14983.9
14979.4
14973.8
14966.9
14958.5
14948.2
14935.7
14920.6
14902.5
14881
14855.5
14825.4
14790.2
14749.1
14701.5
14646.6
14583.8
14512.1
14430.7
14339
14236
14121.1
13993.4
13852.4
13697.4
13527.9
13343.6
13144
12929.2
12698.9
12453.5
12193.2
11918.5
11630
11328.6
11015.2
10690.9
10357.2
10015.3
9666.81
9313.37
8956.69
8598.51
8240.62
7884.82
7532.86
7186.46
6847.29
6516.89
6196.72
5888.1
5592.23
5310.13
5042.69
4790.61
4554.45
4334.6
4131.29
3944.59
3774.45
3620.68
3482.95
3360.87
3253.92
3161.53
3083.05
3017.81
2965.09
2924.14
2894.22
2874.59
2864.52
2863.29
2870.22
2884.64
2905.93
2933.49
2966.77
3005.25
3048.44
3095.89
3147.17
3201.88
3259.65
3320.13
3382.98
3447.88
3514.5
3582.56
3651.75
3721.76
3792.31
3863.11
3933.85
4004.25
4074
4142.83
4210.43
4276.53
4340.85
4403.11
4463.08
4520.5
4575.14
4626.81
4675.31
4720.48
4762.18
4800.28
4834.7
4865.37
4892.23
4915.28
4934.5
4949.91
4961.56
4969.48
4973.76
4974.46
4971.66
4965.47
4955.98
4943.29
4927.52
4908.76
4887.14
4862.76
4835.75
4806.22
4774.32
4740.18
4703.95
4665.79
4625.87
4584.38
4541.51
4497.5
4452.57
4406.97
4360.95
4314.8
4268.79
4223.21
4178.35
4134.49
4091.93
4050.94
4011.77
3974.67
3939.84
3907.48
3877.73
3850.67
3826.3
3804.52
3785
3767.09
3749.5
3729.8
3703.47
3662
3589.51
3456.23
3206.28
2734.6
1842.56
344.745
995.949
15000
15000
15000
15000
15000
15000
15000
14999.9
14999.9
14999.8
14999.8
14999.7
14999.5
14999.3
14999.1
14998.7
14998.2
14997.6
14996.8
14995.7
14994.4
14992.6
14990.4
14987.5
14983.9
14979.4
14973.9
14967
14958.6
14948.3
14935.8
14920.8
14902.7
14881.2
14855.8
14825.7
14790.6
14749.6
14702.1
14647.3
14584.5
14512.9
14431.7
14340.1
14237.3
14122.6
13995.1
13854.2
13699.4
13530.2
13346
13146.7
12932
12702
12456.7
12196.6
11922
11633.7
11332.3
11019
10694.8
10361
10019.1
9670.5
9316.9
8960
8601.54
8243.31
7887.1
7534.68
7187.75
6847.98
6516.92
6196.04
5886.66
5589.96
5307
5038.65
4785.63
4548.5
4327.65
4123.32
3935.59
3764.42
3609.6
3470.84
3347.73
3239.76
3146.37
3066.91
3000.71
2947.05
2905.19
2874.39
2853.91
2843.01
2840.98
2847.14
2860.82
2881.4
2908.28
2940.92
2978.78
3021.38
3068.27
3119.02
3173.24
3230.55
3290.61
3353.08
3417.63
3483.96
3551.77
3620.75
3690.61
3761.06
3831.8
3902.55
3973.01
4042.88
4111.88
4179.71
4246.09
4310.74
4373.4
4433.79
4491.68
4546.84
4599.05
4648.11
4693.87
4736.17
4774.89
4809.93
4841.2
4868.67
4892.3
4912.08
4928.02
4940.17
4948.56
4953.27
4954.35
4951.9
4946.01
4936.79
4924.32
4908.72
4890.11
4868.6
4844.3
4817.35
4787.86
4755.98
4721.85
4685.62
4647.45
4607.53
4566.04
4523.2
4479.21
4434.31
4388.76
4342.81
4296.75
4250.83
4205.37
4160.64
4116.93
4074.52
4033.68
3994.68
3957.74
3923.08
3890.89
3861.29
3834.37
3810.14
3788.47
3769.06
3751.25
3733.76
3714.19
3688.04
3646.9
3574.98
3442.66
3194.13
2723.75
1829.96
343.914
996.493
15000
15000
15000
15000
15000
15000
15000
14999.9
14999.9
14999.8
14999.8
14999.7
14999.5
14999.3
14999.1
14998.7
14998.2
14997.6
14996.8
14995.7
14994.4
14992.6
14990.4
14987.5
14984
14979.5
14973.9
14967.1
14958.7
14948.4
14935.9
14920.9
14902.9
14881.5
14856.1
14826.1
14791
14750.1
14702.7
14648.1
14585.4
14513.9
14432.9
14341.4
14238.8
14124.2
13996.9
13856.3
13701.7
13532.7
13348.7
13149.6
12935.2
12705.4
12460.4
12200.4
11926
11637.8
11336.6
11023.4
10699.2
10365.4
10023.4
9674.74
9320.96
8963.82
8605.05
8246.44
7889.78
7536.83
7189.31
6848.87
6517.07
6195.39
5885.14
5587.52
5303.57
5034.19
4780.1
4541.87
4319.88
4114.39
3925.49
3753.13
3597.12
3457.17
3332.88
3223.74
3129.2
3048.61
2981.3
2926.56
2883.65
2851.82
2830.35
2818.49
2815.54
2820.8
2833.63
2853.38
2879.47
2911.34
2948.48
2990.39
3036.62
3086.76
3140.4
3197.17
3256.74
3318.75
3382.9
3448.87
3516.37
3585.1
3654.77
3725.08
3795.76
3866.5
3937.01
4007
4076.18
4144.26
4210.95
4275.97
4339.06
4399.93
4458.35
4514.08
4566.9
4616.62
4663.05
4706.04
4745.45
4781.19
4813.17
4841.32
4865.62
4886.04
4902.61
4915.33
4924.27
4929.47
4931
4928.96
4923.43
4914.51
4902.3
4886.93
4868.49
4847.12
4822.92
4796.04
4766.61
4734.76
4700.64
4664.42
4626.26
4586.34
4544.87
4502.04
4458.08
4413.24
4367.75
4321.88
4275.91
4230.12
4184.79
4140.21
4096.66
4054.42
4013.77
3974.96
3938.21
3903.74
3871.73
3842.3
3815.55
3791.47
3769.94
3750.65
3732.95
3715.56
3696.11
3670.13
3629.27
3557.85
3426.34
3178.88
2709.02
1813.15
343.4
984.795
15000
15000
15000
15000
15000
15000
15000
14999.9
14999.9
14999.8
14999.8
14999.7
14999.5
14999.3
14999.1
14998.7
14998.2
14997.6
14996.8
14995.8
14994.4
14992.6
14990.4
14987.6
14984
14979.5
14974
14967.2
14958.8
14948.5
14936.1
14921.1
14903.2
14881.8
14856.4
14826.5
14791.5
14750.7
14703.4
14648.9
14586.3
14515
14434.1
14342.9
14240.4
14126
13999
13858.6
13704.2
13535.4
13351.8
13152.9
12938.7
12709.2
12464.4
12204.7
11930.5
11642.4
11341.4
11028.2
10704.1
10370.4
10028.3
9679.48
9325.52
8968.12
8609.02
8250.01
7892.85
7539.33
7191.16
6849.99
6517.39
6194.82
5883.61
5584.97
5299.94
5029.43
4774.15
4534.69
4311.44
4104.66
3914.45
3740.76
3583.42
3442.14
3316.53
3206.08
3110.24
3028.38
2959.82
2903.86
2859.75
2826.77
2804.17
2791.23
2787.22
2791.47
2803.31
2822.12
2847.3
2878.31
2914.61
2955.73
3001.21
3050.64
3103.61
3159.76
3218.75
3280.23
3343.91
3409.46
3476.6
3545.03
3614.46
3684.61
3755.18
3825.89
3896.44
3966.55
4035.92
4104.26
4171.28
4236.7
4300.25
4361.65
4420.65
4477.01
4530.51
4580.94
4628.11
4671.86
4712.06
4748.58
4781.34
4810.26
4835.31
4856.46
4873.72
4887.11
4896.65
4902.42
4904.47
4902.89
4897.77
4889.21
4877.31
4862.19
4843.96
4822.76
4798.69
4771.91
4742.54
4710.74
4676.65
4640.45
4602.3
4562.4
4520.95
4478.15
4434.23
4389.44
4344.03
4298.26
4252.41
4206.75
4161.57
4117.15
4073.79
4031.75
3991.3
3952.7
3916.16
3881.9
3850.09
3820.86
3794.29
3770.37
3748.99
3729.83
3712.24
3694.96
3675.63
3649.82
3609.23
3538.3
3407.72
3162.35
2698.68
1824.73
343.86
972.952
15000
15000
15000
15000
15000
15000
15000
14999.9
14999.9
14999.8
14999.8
14999.7
14999.5
14999.3
14999.1
14998.7
14998.3
14997.6
14996.8
14995.8
14994.4
14992.7
14990.4
14987.6
14984
14979.6
14974.1
14967.3
14958.9
14948.7
14936.3
14921.3
14903.4
14882.1
14856.8
14827
14792.1
14751.3
14704.1
14649.7
14587.3
14516.2
14435.5
14344.4
14242.2
14128
14001.2
13861
13706.9
13538.4
13355
13156.4
12942.5
12713.2
12468.7
12209.3
11935.3
11647.5
11346.6
11033.5
10709.5
10375.7
10033.6
9684.7
9330.55
8972.89
8613.44
8253.99
7896.32
7542.19
7193.33
6851.37
6517.91
6194.38
5882.15
5582.41
5296.21
5024.46
4767.9
4527.09
4302.47
4094.28
3902.64
3727.5
3568.71
3425.97
3298.89
3187
3089.73
3006.46
2936.52
2879.2
2833.77
2799.5
2775.65
2761.49
2756.31
2759.42
2770.16
2787.91
2812.07
2842.1
2877.47
2917.69
2962.32
3010.94
3063.16
3118.6
3176.93
3237.81
3300.94
3366.01
3432.72
3500.8
3569.95
3639.88
3710.32
3780.97
3851.54
3921.75
3991.3
4059.91
4127.27
4193.11
4257.14
4319.1
4378.73
4435.77
4489.99
4541.19
4589.17
4633.76
4674.81
4712.19
4745.8
4775.58
4801.46
4823.42
4841.44
4855.56
4865.79
4872.19
4874.82
4873.77
4869.11
4860.96
4849.41
4834.59
4816.61
4795.6
4771.69
4745.03
4715.75
4684.01
4649.97
4613.8
4575.68
4535.81
4494.38
4451.63
4407.77
4363.05
4317.73
4272.06
4226.34
4180.83
4135.82
4091.59
4048.43
4006.61
3966.39
3928.01
3891.71
3857.68
3826.09
3797.07
3770.69
3746.95
3725.73
3706.71
3689.23
3672.06
3652.85
3627.2
3586.88
3516.46
3386.88
3143.46
2683.06
1810.01
342.851
955.649
15000
15000
15000
15000
15000
15000
15000
14999.9
14999.9
14999.8
14999.8
14999.7
14999.5
14999.3
14999.1
14998.7
14998.3
14997.6
14996.8
14995.8
14994.4
14992.7
14990.5
14987.6
14984.1
14979.7
14974.2
14967.4
14959
14948.8
14936.5
14921.6
14903.7
14882.4
14857.2
14827.5
14792.6
14752
14704.9
14650.7
14588.4
14517.4
14436.9
14346
14244
14130.1
14003.5
13863.6
13709.8
13541.6
13358.5
13160.2
12946.6
12717.6
12473.4
12214.2
11940.5
11652.9
11352.1
11039.2
10715.3
10381.5
10039.4
9690.36
9336.03
8978.09
8618.29
8258.4
7900.19
7545.43
7195.83
6853.06
6518.68
6194.15
5880.83
5579.91
5292.47
5019.41
4761.47
4519.24
4293.14
4083.44
3890.25
3713.55
3553.18
3408.86
3280.21
3166.75
3067.92
2983.12
2911.66
2852.86
2805.99
2770.3
2745.07
2729.57
2723.09
2724.94
2734.47
2751.05
2774.08
2803.02
2837.35
2876.58
2920.26
2967.98
3019.35
3073.99
3131.58
3191.78
3254.28
3318.8
3385.03
3452.69
3521.5
3591.18
3661.44
3731.99
3802.56
3872.85
3942.57
4011.43
4079.14
4145.4
4209.95
4272.49
4332.77
4390.52
4445.52
4497.55
4546.39
4591.87
4633.83
4672.14
4706.68
4737.37
4764.16
4786.99
4805.86
4820.78
4831.76
4838.86
4842.14
4841.67
4837.53
4829.84
4818.69
4804.21
4786.51
4765.74
4742.02
4715.5
4686.33
4654.68
4620.71
4584.59
4546.51
4506.68
4465.3
4422.6
4378.81
4334.17
4288.95
4243.42
4197.84
4152.49
4107.67
4063.65
4020.71
3979.12
3939.15
3901.02
3864.97
3831.18
3799.83
3771.03
3744.86
3721.31
3700.25
3681.37
3664.01
3646.95
3627.85
3602.35
3562.3
3492.39
3363.78
3122.08
2664.5
1796.33
341.398
950.64
15000
15000
15000
15000
15000
15000
15000
14999.9
14999.9
14999.8
14999.8
14999.7
14999.5
14999.3
14999.1
14998.7
14998.3
14997.7
14996.8
14995.8
14994.4
14992.7
14990.5
14987.7
14984.1
14979.7
14974.2
14967.5
14959.1
14949
14936.7
14921.8
14904
14882.8
14857.6
14828
14793.2
14752.7
14705.7
14651.6
14589.5
14518.7
14438.4
14347.7
14245.9
14132.2
14005.9
13866.3
13712.8
13544.9
13362.1
13164.2
12950.9
12722.2
12478.3
12219.4
11945.9
11658.6
11358
11045.3
10721.4
10387.7
10045.6
9696.43
9341.92
8983.72
8623.57
8263.22
7904.46
7549.05
7198.71
6855.08
6519.75
6194.18
5879.72
5577.58
5288.83
5014.38
4754.99
4511.25
4283.6
4072.29
3877.47
3699.11
3537.06
3391.05
3260.71
3145.57
3045.07
2958.61
2885.53
2825.13
2776.69
2739.47
2712.75
2695.79
2687.89
2688.37
2696.57
2711.86
2733.66
2761.41
2794.59
2832.72
2875.36
2922.08
2972.5
3026.26
3083.02
3142.46
3204.26
3268.15
3333.82
3401.01
3469.42
3538.78
3608.82
3679.25
3749.77
3820.12
3889.99
3959.09
4027.13
4093.82
4158.88
4222.02
4282.97
4341.47
4397.28
4450.16
4499.91
4546.34
4589.27
4628.56
4664.09
4695.77
4723.52
4747.3
4767.08
4782.86
4794.66
4802.53
4806.51
4806.68
4803.12
4795.94
4785.24
4771.14
4753.78
4733.27
4709.77
4683.43
4654.41
4622.86
4588.98
4552.93
4514.92
4475.14
4433.83
4391.19
4347.48
4302.95
4257.85
4212.45
4167.03
4121.87
4077.26
4033.46
3990.76
3949.42
3909.7
3871.84
3836.05
3802.53
3771.43
3742.87
3716.91
3693.55
3672.66
3653.92
3636.68
3619.73
3600.73
3575.39
3535.61
3466.18
3338.47
3098.23
2642.14
1772.1
340.104
955.644
15000
15000
15000
15000
15000
15000
15000
14999.9
14999.9
14999.8
14999.8
14999.7
14999.5
14999.3
14999.1
14998.7
14998.3
14997.7
14996.9
14995.8
14994.5
14992.7
14990.5
14987.7
14984.2
14979.8
14974.3
14967.6
14959.3
14949.1
14936.8
14922
14904.3
14883.1
14858
14828.5
14793.8
14753.4
14706.6
14652.6
14590.7
14520
14439.9
14349.5
14247.9
14134.5
14008.5
13869.2
13716
13548.4
13365.9
13168.3
12955.3
12727
12483.4
12224.8
11951.7
11664.5
11364.2
11051.7
10727.9
10394.3
10052.1
9702.89
9348.21
8989.75
8629.25
8268.45
7909.14
7553.07
7201.96
6857.47
6521.16
6194.52
5878.89
5575.48
5285.38
5009.5
4748.6
4503.29
4274
4061.02
3864.48
3684.38
3520.56
3372.77
3240.64
3123.71
3021.44
2933.23
2858.41
2796.3
2746.18
2707.31
2678.98
2660.46
2651.04
2650.03
2656.8
2670.7
2691.15
2717.6
2749.53
2786.46
2827.95
2873.58
2922.97
2975.75
3031.6
3090.18
3151.21
3214.39
3279.44
3346.08
3414.03
3483.03
3552.78
3623.03
3693.47
3763.84
3833.82
3903.14
3971.5
4038.61
4104.18
4167.92
4229.55
4288.81
4345.45
4399.23
4449.92
4497.33
4541.28
4581.6
4618.18
4650.9
4679.68
4704.46
4725.21
4741.92
4754.61
4763.3
4768.04
4768.91
4765.99
4759.37
4749.17
4735.5
4718.5
4698.31
4675.07
4648.94
4620.09
4588.69
4554.91
4518.96
4481.03
4441.33
4400.1
4357.55
4313.94
4269.52
4224.56
4179.32
4134.07
4089.11
4044.72
4001.16
3958.71
3917.64
3878.2
3840.61
3805.1
3771.85
3741.01
3712.69
3686.96
3663.8
3643.08
3624.48
3607.36
3590.5
3571.61
3546.41
3506.89
3437.96
3311.22
3072.97
2621.94
1767.74
338.98
956.047
15000
15000
15000
15000
15000
15000
15000
14999.9
14999.9
14999.8
14999.8
14999.7
14999.5
14999.3
14999.1
14998.7
14998.3
14997.7
14996.9
14995.8
14994.5
14992.8
14990.5
14987.8
14984.2
14979.9
14974.4
14967.7
14959.4
14949.3
14937
14922.3
14904.6
14883.5
14858.5
14829
14794.4
14754.2
14707.5
14653.6
14591.9
14521.4
14441.5
14351.3
14250
14136.8
14011.1
13872.1
13719.2
13551.9
13369.8
13172.6
12960
12732
12488.7
12230.5
11957.6
11670.8
11370.7
11058.3
10734.7
10401.2
10059
9709.7
9354.87
8996.17
8635.32
8274.08
7914.22
7557.5
7205.62
6860.25
6522.97
6195.23
5878.4
5573.71
5282.22
5004.87
4742.42
4495.49
4264.52
4049.8
3851.48
3669.55
3503.89
3354.24
3220.24
3101.44
2997.3
2907.23
2830.58
2766.66
2714.76
2674.15
2644.1
2623.91
2612.86
2610.26
2615.48
2627.89
2646.89
2671.94
2702.52
2738.16
2778.4
2822.85
2871.11
2922.82
2977.67
3035.32
3095.49
3157.89
3222.23
3288.25
3355.68
3424.23
3493.66
3563.66
3633.98
3704.31
3774.38
3843.89
3912.54
3980.04
4046.11
4110.44
4172.76
4232.79
4290.27
4344.96
4396.62
4445.05
4490.04
4531.45
4569.11
4602.92
4632.78
4658.62
4680.4
4698.09
4711.72
4721.29
4726.85
4728.48
4726.24
4720.24
4710.59
4697.4
4680.82
4660.98
4638.04
4612.16
4583.51
4552.27
4518.64
4482.81
4444.98
4405.39
4364.25
4321.82
4278.32
4234.04
4189.23
4144.16
4099.11
4054.36
4010.2
3966.89
3924.71
3883.92
3844.76
3807.47
3772.25
3739.27
3708.7
3680.63
3655.13
3632.17
3611.61
3593.15
3576.15
3559.38
3540.59
3515.53
3476.26
3407.85
3282.16
3045.98
2598.58
1749.87
338.19
950.318
15000
15000
15000
15000
15000
15000
15000
14999.9
14999.9
14999.8
14999.8
14999.7
14999.5
14999.3
14999.1
14998.7
14998.3
14997.7
14996.9
14995.8
14994.5
14992.8
14990.6
14987.8
14984.3
14979.9
14974.5
14967.8
14959.5
14949.5
14937.2
14922.5
14904.9
14883.8
14858.9
14829.5
14795.1
14754.9
14708.3
14654.7
14593.1
14522.8
14443.1
14353.1
14252.1
14139.2
14013.7
13875.1
13722.5
13555.6
13373.8
13176.9
12964.7
12737.1
12494.2
12236.3
11963.8
11677.2
11377.4
11065.2
10741.8
10408.3
10066.2
9716.85
9361.88
9002.95
8641.77
8280.11
7919.71
7562.34
7209.71
6863.46
6525.19
6196.36
5878.33
5572.33
5279.44
5000.59
4736.57
4487.98
4255.28
4038.78
3838.62
3654.82
3487.25
3335.67
3199.73
3078.98
2972.9
2880.9
2802.33
2736.51
2682.73
2640.28
2608.43
2586.46
2573.68
2569.4
2572.98
2583.79
2601.24
2624.8
2653.93
2688.18
2727.08
2770.25
2817.28
2867.84
2921.6
2978.23
3037.46
3098.99
3162.55
3227.88
3294.7
3362.76
3431.78
3501.49
3571.62
3641.87
3711.97
3781.62
3850.54
3918.41
3984.94
4049.85
4112.84
4173.64
4231.97
4287.58
4340.22
4389.68
4435.76
4478.27
4517.06
4551.99
4582.98
4609.92
4632.78
4651.52
4666.13
4676.64
4683.08
4685.51
4684.02
4678.69
4669.63
4656.97
4640.85
4621.41
4598.8
4573.21
4544.8
4513.77
4480.3
4444.62
4406.93
4367.46
4326.45
4284.14
4240.79
4196.65
4152.01
4107.13
4062.29
4017.77
3973.85
3930.81
3888.91
3848.41
3809.55
3772.56
3737.63
3704.94
3674.64
3646.83
3621.55
3598.78
3578.4
3560.07
3543.17
3526.49
3507.78
3482.85
3443.84
3375.96
3251.39
3017.56
2575.43
1738.96
336.87
955.425
15000
15000
15000
15000
15000
15000
15000
14999.9
14999.9
14999.8
14999.8
14999.7
14999.5
14999.3
14999.1
14998.7
14998.3
14997.7
14996.9
14995.9
14994.5
14992.8
14990.6
14987.8
14984.3
14980
14974.6
14967.9
14959.6
14949.6
14937.5
14922.8
14905.2
14884.2
14859.4
14830.1
14795.7
14755.7
14709.3
14655.7
14594.3
14524.2
14444.7
14355
14254.2
14141.6
14016.5
13878.1
13725.9
13559.3
13377.9
13181.4
12969.6
12742.4
12499.8
12242.3
11970.1
11683.8
11384.3
11072.4
10749.1
10415.8
10073.7
9724.31
9369.23
9010.09
8648.61
8286.53
7925.61
7567.61
7214.23
6867.13
6527.88
6197.96
5878.73
5571.42
5277.11
4996.76
4731.14
4480.87
4246.43
4028.11
3826.08
3640.37
3470.85
3317.29
3179.35
3056.59
2948.5
2854.49
2773.92
2706.12
2650.39
2606.02
2572.27
2548.45
2533.85
2527.79
2529.63
2538.75
2554.57
2576.53
2604.13
2636.88
2674.36
2716.15
2761.88
2811.19
2863.77
2919.3
2977.49
3038.07
3100.78
3165.33
3231.48
3298.96
3367.51
3436.86
3506.73
3576.85
3646.94
3716.69
3785.81
3854.01
3920.99
3986.45
4050.09
4111.64
4170.8
4227.33
4280.96
4331.47
4378.64
4422.27
4462.21
4498.31
4530.45
4558.55
4582.52
4602.34
4618
4629.49
4636.86
4640.15
4639.45
4634.84
4626.43
4614.35
4598.73
4579.73
4557.51
4532.24
4504.11
4473.31
4440.05
4404.55
4367.02
4327.7
4286.83
4244.68
4201.48
4157.52
4113.06
4068.38
4023.77
3979.49
3935.84
3893.07
3851.46
3811.26
3772.71
3736.02
3701.39
3668.99
3638.97
3611.4
3586.35
3563.78
3543.55
3525.35
3508.54
3491.93
3473.3
3448.49
3409.72
3342.36
3218.82
2986.91
2547.69
1711.84
334.338
965.08
15000
15000
15000
15000
15000
15000
15000
14999.9
14999.9
14999.8
14999.8
14999.7
14999.5
14999.3
14999.1
14998.8
14998.3
14997.7
14996.9
14995.9
14994.5
14992.8
14990.6
14987.9
14984.4
14980.1
14974.7
14968
14959.8
14949.8
14937.7
14923
14905.5
14884.6
14859.8
14830.6
14796.4
14756.5
14710.2
14656.8
14595.6
14525.7
14446.4
14356.9
14256.4
14144.1
14019.2
13881.2
13729.4
13563.2
13382.2
13186
12974.6
12747.7
12505.6
12248.4
11976.6
11690.7
11391.4
11079.7
10756.7
10423.5
10081.5
9732.07
9376.9
9017.57
8655.81
8293.34
7931.93
7573.31
7219.21
6871.26
6531.05
6200.06
5879.64
5571.03
5275.32
4993.46
4726.24
4474.29
4238.08
4017.94
3814.02
3626.36
3454.86
3299.28
3159.3
3034.48
2924.33
2828.25
2745.63
2675.79
2618.03
2571.66
2535.94
2510.18
2493.68
2485.76
2485.79
2493.13
2507.22
2527.5
2553.47
2584.65
2620.61
2660.94
2705.26
2753.24
2804.56
2858.89
2915.98
2975.53
3037.28
3100.99
3166.39
3233.22
3301.22
3370.14
3439.69
3509.61
3579.61
3649.4
3718.69
3787.17
3854.55
3920.52
3984.79
4047.06
4107.04
4164.47
4219.09
4270.64
4318.9
4363.68
4404.79
4442.07
4475.4
4504.67
4529.8
4550.75
4567.48
4580.01
4588.35
4592.55
4592.69
4588.84
4581.13
4569.67
4554.6
4536.08
4514.29
4489.38
4461.57
4431.05
4398.03
4362.73
4325.4
4286.26
4245.56
4203.58
4160.56
4116.79
4072.54
4028.08
3983.7
3939.68
3896.3
3853.82
3812.51
3772.62
3734.37
3697.99
3663.67
3631.56
3601.81
3574.49
3549.66
3527.28
3507.2
3489.11
3472.38
3455.84
3437.26
3412.55
3374.01
3307.14
3184.5
2953.91
2515.09
1673.06
333.151
972.796
15000
15000
15000
15000
15000
15000
15000
14999.9
14999.9
14999.8
14999.8
14999.7
14999.5
14999.4
14999.1
14998.8
14998.3
14997.7
14996.9
14995.9
14994.6
14992.8
14990.7
14987.9
14984.5
14980.1
14974.7
14968.1
14959.9
14950
14937.9
14923.3
14905.8
14885
14860.3
14831.2
14797.1
14757.3
14711.1
14657.9
14596.9
14527.2
14448.1
14358.9
14258.6
14146.6
14022.1
13884.4
13732.9
13567.1
13386.4
13190.7
12979.7
12753.2
12511.5
12254.7
11983.2
11697.7
11398.7
11087.3
10764.5
10431.4
10089.5
9740.13
9384.88
9025.4
8663.37
8300.54
7938.66
7579.46
7224.65
6875.89
6534.74
6202.69
5881.1
5571.21
5274.11
4990.76
4721.96
4468.33
4230.36
4008.38
3802.56
3612.95
3439.44
3281.82
3139.77
3012.87
2900.61
2802.42
2717.69
2645.76
2585.92
2537.48
2499.73
2471.97
2453.49
2443.64
2441.76
2447.26
2459.53
2478.05
2502.31
2531.83
2566.19
2604.97
2647.82
2694.38
2744.34
2797.41
2853.29
2911.73
2972.46
3035.23
3099.79
3165.89
3233.28
3301.68
3370.85
3440.5
3510.35
3580.12
3649.51
3718.22
3785.95
3852.38
3917.23
3980.19
4040.97
4099.28
4154.86
4207.45
4256.81
4302.73
4345.01
4383.49
4418.03
4448.5
4474.81
4496.91
4514.77
4528.36
4537.71
4542.86
4543.88
4540.85
4533.87
4523.08
4508.61
4490.63
4469.29
4444.8
4417.34
4387.13
4354.38
4319.33
4282.22
4243.28
4202.79
4161
4118.19
4074.62
4030.59
3986.37
3942.24
3898.49
3855.39
3813.21
3772.2
3732.62
3694.69
3658.62
3624.6
3592.78
3563.3
3536.23
3511.61
3489.4
3469.47
3451.48
3434.82
3418.32
3399.79
3375.17
3336.84
3270.47
3148.9
2920.66
2487.97
1665.84
332.997
969.55
15000
15000
15000
15000
15000
15000
15000
14999.9
14999.9
14999.8
14999.8
14999.7
14999.5
14999.4
14999.1
14998.8
14998.3
14997.7
14996.9
14995.9
14994.6
14992.9
14990.7
14988
14984.5
14980.2
14974.8
14968.2
14960.1
14950.1
14938.1
14923.6
14906.2
14885.4
14860.8
14831.8
14797.8
14758.1
14712.1
14659
14598.2
14528.7
14449.9
14360.9
14260.9
14149.2
14025
13887.6
13736.5
13571.1
13390.8
13195.5
12984.9
12758.9
12517.5
12261.1
11990
11704.8
11406.2
11095.1
10772.5
10439.6
10097.8
9748.47
9393.18
9033.55
8671.29
8308.13
7945.8
7586.05
7230.57
6881.01
6538.96
6205.89
5883.15
5572.01
5273.55
4988.73
4718.35
4463.06
4223.34
3999.53
3791.82
3600.25
3424.74
3265.07
3120.94
2991.92
2877.53
2777.21
2690.34
2616.27
2554.31
2503.76
2463.92
2434.09
2413.58
2401.73
2397.89
2401.46
2411.85
2428.54
2451.01
2478.79
2511.47
2548.63
2589.91
2634.97
2683.5
2735.21
2789.81
2847.06
2906.68
2968.44
3032.09
3097.38
3164.06
3231.88
3300.58
3369.88
3439.52
3509.2
3578.62
3647.49
3715.51
3782.36
3847.75
3911.35
3972.88
4032.04
4088.56
4142.16
4192.6
4239.65
4283.11
4322.79
4358.54
4390.23
4417.75
4441.03
4460.02
4474.72
4485.12
4491.26
4493.2
4491.02
4484.83
4474.75
4460.92
4443.5
4422.68
4398.63
4371.57
4341.7
4309.27
4274.49
4237.63
4198.93
4158.66
4117.1
4074.5
4031.17
3987.37
3943.4
3899.54
3856.07
3813.26
3771.38
3730.69
3691.42
3653.81
3618.05
3584.33
3552.79
3523.57
3496.73
3472.32
3450.28
3430.47
3412.57
3395.96
3379.49
3360.99
3336.45
3298.35
3232.54
3112.34
2887.4
2463.37
1664.09
333.445
971.415
15000
15000
15000
15000
15000
15000
15000
14999.9
14999.9
14999.8
14999.8
14999.7
14999.5
14999.4
14999.1
14998.8
14998.3
14997.7
14996.9
14995.9
14994.6
14992.9
14990.7
14988
14984.6
14980.3
14974.9
14968.3
14960.2
14950.3
14938.3
14923.9
14906.5
14885.8
14861.3
14832.4
14798.5
14758.9
14713.1
14660.2
14599.5
14530.3
14451.7
14362.9
14263.3
14151.8
14028
13891
13740.2
13575.2
13395.3
13200.4
12990.2
12764.6
12523.7
12267.7
11997
11712.2
11413.9
11103.1
10780.8
10448.1
10106.4
9757.1
9401.78
9042.05
8679.58
8316.11
7953.36
7593.08
7236.96
6886.65
6543.72
6209.65
5885.81
5573.45
5273.65
4987.39
4715.47
4458.55
4217.1
3991.49
3781.91
3588.39
3410.88
3249.17
3102.95
2971.82
2855.29
2752.81
2663.78
2587.54
2523.42
2470.73
2428.76
2396.82
2374.23
2360.32
2354.46
2356.04
2364.5
2379.28
2399.89
2425.87
2456.79
2492.25
2531.9
2575.38
2622.41
2672.68
2725.92
2781.89
2840.32
2900.99
2963.64
3028.04
3093.94
3161.1
3229.25
3298.13
3367.47
3436.98
3506.37
3575.34
3643.58
3710.79
3776.65
3840.85
3903.08
3963.05
4020.46
4075.05
4126.55
4174.72
4219.33
4260.21
4297.17
4330.08
4358.81
4383.29
4403.45
4419.27
4430.75
4437.91
4440.81
4439.52
4434.15