<?xml version="1.0"?>
<VTKFile type="PolyData" version="0.1" byte_order="LittleEndian">
  <PolyData>
    <Piece NumberOfPoints="50000" NumberOfVerts="50000" NumberOfLines="0" NumberOfStrips="0" NumberOfPolys="0">
      <Points>
        <DataArray type="Float32" NumberOfComponents="3" format="ascii">
0.218832 0.00496174 0
-0.207099 0.00189856 0
0.211866 -0.00114625 0
0.221303 -0.000864047 0
-0.180022 0.00375981 0
-0.151148 0.00151534 0
0.0727861 -0.013791 0
-0.186253 0.000311514 0
0.0643196 -0.0106895 0
-0.0143068 0.00521698 0
0.166103 -0.00658339 0
0.211249 0.00455296 0
-0.121125 0.00418061 0
-0.0857174 -0.0129796 0
-0.226209 0.00157159 0
0.171205 0.00697565 0
-0.0312722 -0.000833934 0
0.21943 0.00118834 0
0.0833165 0.00109096 0
-0.207316 0.00235841 0
-0.217309 0.00334357 0
0.190055 0.00397696 0
-0.214375 0.00172665 0
0.214076 0.000286588 0
0.13629 -0.00663145 0
0.159231 0.00735555 0
-0.212403 -0.00378499 0
0.219844 -0.00155913 0
-0.151848 0.0131575 0
-0.223886 0.00529342 0
-0.168288 0.00693282 0
-0.156244 -0.00867156 0
0.217796 0.000736339 0
0.219101 -0.000282189 0
0.0419123 0.00312208 0
0.222845 -0.000601219 0
0.0677969 0.001132 0
-0.222113 0.00171528 0
-0.207542 -0.00252365 0
-0.230766 -0.00102998 0
0.160498 0.0074863 0
0.169748 0.00366865 0
-0.212156 -0.000952071 0
0.216418 0.000685239 0
0.224073 0.00101434 0
-0.21837 0.00511209 0
0.21329 0.00301242 0
0.109283 -0.00784694 0
0.210473 0.000485147 0
0.215504 0.00039735 0
0.0902624 0.0120579 0
-0.214175 -0.0002263 0
-0.148616 0.0055061 0
0.212745 0.0019085 0
-0.210787 0.00169686 0
-0.224624 0.00178116 0
0.219054 -0.000386 0
0.0884255 0.00667213 0
0.163665 0.00445489 0
0.226118 -0.00236055 0
0.184491 0.00293185 0
0.221423 0.00177424 0
0.0488856 -0.0171827 0
0.226021 -0.000647727 0
-0.0722679 0.0095852 0
-0.210194 0.00115991 0
0.214843 -0.000174775 0
0.220604 -3.11025e-05 0
0.228132 0.0025328 0
0.158018 0.000864027 0
-0.212562 0.00217262 0
0.214645 0.00238396 0
0.117549 0.0010318 0
0.119762 0.00407129 0
0.102229 0.00315627 0
-0.215825 -0.000983972 0
0.187299 0.00714795 0
-0.204736 0.00276045 0
0.165316 0.00409059 0
-0.224122 0.00129357 0
-0.112427 -0.0179381 0
-0.21963 0.00280043 0
0.20298 0.00313955 0
-0.213561 0.000755608 0
0.22584 -0.00223716 0
-0.213976 0.00221999 0
0.22619 -0.00218817 0
-0.0959736 -0.00423909 0
-0.09279 0.0128672 0
-0.216001 -0.00348218 0
0.212767 0.00399333 0
-0.211258 6.4029e-05 0
0.213613 -0.000624106 0
-0.14521 0.011014 0
-0.0215601 -0.01142 0
-0.189871 0.0032716 0
0.213432 0.00511008 0
-0.217684 0.00218272 0
-0.229671 0.00439636 0
-0.227627 -0.00013891 0
-0.190678 -0.00368418 0
-0.212071 -0.00266286 0
0.227594 2.27508e-05 0
-0.0913754 -0.010758 0
0.229203 9.29813e-05 0
0.187422 0.00724247 0
0.138443 0.00404368 0
0.0112654 0.00463921 0
0.210547 0.00282956 0
-0.214943 -0.00211314 0
-0.161633 0.0110456 0
-0.217947 0.00213182 0
-0.185774 0.00611637 0
155.582 225.057 0
0.143699 0.00437284 0
-0.214742 0.0023517 0
-0.222718 0.00280828 0
3.98707 5.45405 0
-0.216447 0.00130175 0
-0.0106008 -0.00426559 0
0.219928 -0.00037616 0
-0.208841 -0.00165601 0
0.148497 -0.00148129 0
-0.199405 0.00442182 0
0.215782 1.75046e-05 0
0.209779 -0.00012032 0
0.0689545 0.0132967 0
0.221517 0.00278026 0
-0.193215 -0.00331069 0
0.167258 -9.88473e-05 0
0.222959 -0.00131856 0
0.221123 0.000169389 0
-0.228649 0.000818344 0
-0.190677 0.00259767 0
0.226566 -0.000574566 0
0.215366 -0.000157199 0
0.207562 -0.00111996 0
-0.0340924 0.00209602 0
0.173402 -0.00724305 0
0.168767 -0.00602487 0
0.17333 -0.00736795 0
0.20567 0.00559558 0
0.222548 -0.00143181 0
-0.0511418 -0.00712767 0
-0.221744 0.00403852 0
0.147536 -0.0117323 0
-0.141662 0.0112134 0
-0.218707 0.00148132 0
-0.155921 -0.0103089 0
-0.219421 0.0023936 0
0.167812 0.00439251 0
0.213937 0.0016369 0
-0.066296 -0.00596588 0
0.174049 -0.00516404 0
0.173051 0.00491877 0
0.212214 0.00251965 0
0.145189 -0.00483361 0
-0.215073 0.00190088 0
-0.0925156 -0.00282694 0
0.221936 0.000196282 0
0.148285 -0.000492853 0
-0.195222 -0.00122717 0
-0.211311 0.00175722 0
-0.219732 0.00179084 0
-0.0565208 0.00578672 0
0.170862 -0.00302076 0
0.193116 -0.0026266 0
0.195536 0.00238397 0
0.163862 0.00470307 0
-0.0900082 0.000706553 0
0.228524 -0.00225119 0
-0.210612 0.00207365 0
-0.0497027 -0.00279046 0
0.220998 0.00275926 0
-0.0398768 -0.00147078 0
-0.169769 0.00887906 0
-0.211185 0.00173564 0
-0.128109 -0.00556436 0
-0.214161 -0.000881173 0
-0.21513 -0.00319215 0
0.211791 0.000344929 0
-0.217549 0.00385154 0
-0.214228 0.00331003 0
0.218728 0.00329654 0
0.213272 -0.000104534 0
0.164718 -0.00895542 0
0.229011 -0.00145799 0
0.226503 0.000625814 0
0.219746 -0.00160564 0
0.0246977 0.0162971 0
0.223467 -0.00158869 0
0.180859 -0.00454406 0
-0.144724 -0.00952059 0
0.20125 0.00386069 0
-0.198878 0.00382873 0
0.211786 0.00133896 0
-0.177091 0.00672989 0
-0.188855 0.00325192 0
-0.211967 0.00246966 0
0.214516 0.00308094 0
-0.141337 0.0106231 0
0.225873 0.00185704 0
0.195965 -0.00257141 0
-0.0442405 -0.00344539 0
0.228873 -0.00230625 0
-0.209108 -0.00397431 0
0.0297954 0.0260612 0
0.0908724 -0.00321118 0
-0.189038 0.00617285 0
-0.133015 -0.00511376 0
0.209698 0.000706206 0
-0.092599 -0.0109451 0
0.197487 -0.00159695 0
-0.182685 0.0063436 0
-0.124991 -0.00816155 0
-0.219661 0.00365685 0
-0.21673 0.00454012 0
0.217354 0.000234493 0
-0.222599 -0.000388157 0
-0.0258735 0.0117272 0
-0.171121 0.00672779 0
-0.222255 0.00233518 0
-0.206137 -0.00308533 0
0.226971 -0.00120858 0
0.0803182 0.0137135 0
-0.211325 0.00201458 0
0.228051 0.000999642 0
0.21897 -6.16845e-05 0
-0.187605 0.0056624 0
-0.221545 3.00922e-05 0
-0.218041 -0.00172962 0
0.2131 0.00270444 0
0.110854 0.0131403 0
-0.0333312 0.00848763 0
-0.225552 0.00276428 0
-0.194037 0.00356506 0
0.167259 -0.00910101 0
-0.170662 -0.00205212 0
-0.215467 0.00217215 0
0.132693 -0.00120451 0
0.223889 0.000363438 0
-0.197994 -0.00333958 0
-0.218041 0.0021872 0
-0.125696 -0.00721168 0
0.109438 0.00408027 0
0.195446 0.00264452 0
-0.205652 0.00418287 0
0.219137 -6.12975e-05 0
0.22541 0.00182365 0
0.129276 0.00717097 0
0.134917 0.00274907 0
-0.204884 0.00310978 0
0.211592 -0.00121103 0
-0.0966626 -0.00471341 0
-0.198133 0.00477833 0
0.211985 0.000231532 0
-0.192037 0.00466947 0
0.187405 0.00524678 0
0.0813016 0.0130307 0
0.117487 0.00054247 0
0.225364 0.000881666 0
-0.204809 0.00301615 0
0.0413844 -0.00408394 0
0.0208708 -0.00717496 0
-0.145962 0.00222312 0
-0.215313 0.000928796 0
-0.211917 0.00194654 0
-0.210591 -0.000410469 0
0.217205 -0.000169013 0
0.215428 -5.3739e-05 0
0.221938 -0.000132913 0
-0.217289 -0.00120997 0
0.142415 0.00204465 0
0.0118905 0.00702801 0
-0.226797 0.0030856 0
-0.220474 0.00160136 0
0.210938 0.000171593 0
-0.210731 0.00199275 0
0.209223 0.00390531 0
-0.21391 -0.000437717 0
-0.207224 0.000283145 0
-0.0955518 -0.0120133 0
-0.217263 0.0016909 0
0.205888 -0.00080627 0
-0.184398 0.00617502 0
-0.20777 -0.00137833 0
-0.0821742 0.0111244 0
-0.216685 0.00212401 0
-0.22 0.0024189 0
0.185735 -0.00129632 0
-0.0769748 0.00404272 0
0.216885 -0.00012515 0
0.221624 -0.00119073 0
0.141184 0.00789425 0
0.224965 0.00217777 0
0.213836 0.00375595 0
0.22407 0.00266712 0
-0.148451 0.0129671 0
-0.203481 0.00146902 0
-0.226091 0.000866081 0
0.229858 0.0008767 0
-0.0302658 0.00436552 0
0.216124 -0.000572548 0
0.211038 0.00217392 0
0.222511 -2.3272e-05 0
0.0383283 0.0069653 0
-0.113698 0.013879 0
0.187278 0.00328658 0
-0.0258081 0.000587817 0
-0.105995 0.00542364 0
-0.177668 0.00661292 0
0.216928 0.00400189 0
-0.157213 0.00822843 0
0.200554 -0.00252582 0
0.165344 -0.00218896 0
-0.225486 0.00375656 0
0.176191 -0.00757127 0
0.227584 -0.00242991 0
0.203473 -0.00125356 0
0.217623 0.0044046 0
-0.219976 0.00326669 0
-0.0478928 0.00850154 0
0.221805 0.0015037 0
0.220878 -0.000127681 0
0.10184 0.0137555 0
-0.209997 0.000112366 0
-0.205822 0.00309121 0
0.227334 0.000651367 0
-0.210291 -0.00126707 0
0.219456 0.0017395 0
0.22092 -0.000934392 0
0.105711 -0.0122623 0
0.21147 0.00228231 0
-0.216012 0.0021582 0
-0.184593 4.11405e-05 0
-0.123851 -0.000995928 0
0.0177759 -0.00379366 0
0.0265549 -0.0154075 0
-0.198118 0.00219184 0
0.0983383 -0.0136561 0
-0.0226719 0.0221832 0
-0.223127 0.00365498 0
-0.15913 0.00773899 0
-0.217753 0.00277463 0
-0.0898464 -0.00695198 0
0.220902 0.00411568 0
-0.154473 0.00864583 0
-0.220531 0.000333199 0
-33.3097 137.779 0
0.220349 -0.0024468 0
0.219671 -0.000211131 0
-0.179331 0.008023 0
0.213724 0.00200145 0
0.20266 -0.00015875 0
-301.743 -539.62 0
0.0674592 0.0082825 0
-0.218231 0.00238031 0
-0.181142 -0.000954734 0
0.218016 0.00230198 0
2.15993 -4.4483 0
0.206304 0.00308432 0
-0.213645 -0.00289194 0
-0.136057 0.000522958 0
-0.216971 -0.0014114 0
-0.221122 0.00401464 0
0.21644 -0.000156398 0
-0.224347 -0.00039394 0
-0.194447 0.0053357 0
0.169713 0.00717514 0
-0.211455 0.000412707 0
-0.176037 0.00803149 0
-0.195448 0.00481857 0
0.218602 0.00267178 0
0.197147 -0.00337939 0
-0.129879 0.0106659 0
0.224885 -0.000725833 0
-0.218382 -0.00268562 0
-0.202779 -0.00157557 0
-0.220701 0.00106017 0
0.0193914 -0.0163518 0
-0.212528 -0.00252106 0
0.215882 0.00270767 0
-0.216394 0.0023751 0
-0.215392 0.00145387 0
-0.0526957 0.00855161 0
0.141179 0.00779069 0
-0.0699285 0.0200388 0
0.046643 0.0115283 0
-0.218477 0.00249651 0
-0.0391374 0.00235101 0
-0.218939 -0.00014588 0
-0.220003 0.00335219 0
0.210894 -0.00274546 0
0.185562 0.00548854 0
-0.205639 0.00385798 0
0.196159 0.00305257 0
0.194588 0.00113592 0
-0.209859 0.00204301 0
-0.115543 -0.0034293 0
0.153857 -0.0089046 0
-0.210252 0.000832391 0
0.186404 -0.00440984 0
0.0855768 -0.00219084 0
-0.215844 -0.000145633 0
0.202526 7.47945e-05 0
0.213037 -0.000849412 0
0.21653 -0.00213524 0
0.22053 -0.000429142 0
0.22419 0.000430629 0
0.212702 0.00415238 0
-0.217424 0.00188728 0
0.156704 0.00563148 0
-0.17935 -0.00232906 0
0.102865 0.0148214 0
-0.20467 0.00186751 0
-0.0727688 -0.00261239 0
-0.169499 0.00675309 0
0.0623677 -0.00715933 0
-0.221926 0.002505 0
0.212841 -0.000163688 0
-0.0593793 0.0163521 0
0.0762694 0.00881679 0
-0.224893 0.00222038 0
0.214477 0.00143936 0
[...]
      <PointData Scalars="T">
        <DataArray type="Float32" Name="T" format="ascii" NumberOfComponents="1">
310.537
396.649
310.72
310.72
374.047
437.942
310.72
465.929
310.72
374.047
310.72
310.537
374.047
383.76
444.248
310.537
383.76
301.036
300.887
374.047
374.047
310.537
420.065
302.746
310.72
310.537
383.76
310.72
374.047
374.047
374.047
383.76
300.797
310.72
310.537
310.72
300.954
423.624
383.76
383.76
310.537
310.537
383.76
300.918
300.64
374.047
310.537
310.72
301.737
302.136
310.537
383.76
374.047
306.795
429.909
414.818
310.72
310.537
310.537
310.72
310.537
304.605
310.72
310.72
374.047
469.112
310.72
310.72
310.537
300.7
374.047
310.537
300.63
310.537
310.537
383.76
310.537
374.047
310.537
446.541
383.76
374.047
310.537
441.476
310.72
374.047
310.72
383.76
374.047
383.76
310.537
464.281
310.72
374.047
383.76
374.047
310.537
374.047
374.047
383.76
383.76
383.76
303.831
383.76
303.802
310.537
310.537
310.537
310.537
383.76
374.047
374.047
374.047
310.537
310.537
374.047
374.047
310.537
448.42
383.76
310.72
383.76
310.72
374.047
303.883
310.72
310.537
310.537
383.76
310.72
310.72
303.019
464.372
374.047
310.72
310.72
310.72
374.047
310.72
310.72
310.72
310.537
310.72
383.76
374.047
310.72
374.047
438.619
383.76
374.047
310.537
303.79
383.76
310.72
310.537
310.537
310.72
395.514
383.76
302.806
310.72
383.76
416.447
413.843
374.047
310.72
310.72
310.537
310.537
443.013
310.72
374.047
383.76
310.537
383.76
374.047
418.566
383.76
383.76
383.76
302.596
374.047
374.047
310.537
310.72
310.72
310.72
301.086
310.72
310.537
310.72
310.72
383.76
310.537
374.047
301.189
374.047
374.047
374.047
310.537
374.047
305.722
310.72
383.76
310.72
383.76
310.537
310.72
374.047
383.76
300.868
383.76
310.72
374.047
383.76
374.047
374.047
302.609
383.76
374.047
374.047
374.047
383.76
310.72
310.537
374.047
300.6
310.72
374.047
468.112
383.76
310.537
310.537
374.047
374.047
374.047
310.72
383.76
374.047
310.72
302.433
383.76
374.047
383.76
310.537
310.537
374.047
310.72
305.32
310.537
310.537
374.047
310.72
383.76
374.047
302.609
374.047
310.537
310.537
301.308
300.652
374.047
310.72
310.72
374.047
450.728
374.047
383.76
310.72
310.72
310.72
383.76
310.537
310.537
374.047
445.641
302.917
374.047
310.537
383.76
463.528
383.76
429.909
310.72
374.047
383.76
374.047
374.047
374.047
310.72
374.047
310.72
310.72
310.537
310.537
310.537
310.537
374.047
438.714
454.212
300.675
374.047
310.72
310.537
310.72
310.537
374.047
310.537
435.117
374.047
374.047
310.537
374.047
310.72
310.72
374.047
310.72
310.72
310.72
310.537
374.047
374.047
302.283
310.72
310.537
467.056
374.047
300.978
383.76
304.417
310.72
310.72
310.537
374.047
469.107
383.76
310.72
310.72
374.047
310.72
374.047
374.047
374.047
374.047
383.76
310.537
374.047
468.813
374.047
310.72
310.72
374.047
310.537
310.72
383.76
310.537
374.047
383.76
310.537
310.72
310.537
383.76
445.151
383.76
374.047
310.72
383.76
374.047
310.537
456.591
374.047
374.047
310.537
310.72
374.047
310.72
383.76
383.76
468.143
310.72
383.76
310.537
374.047
439.299
374.047
310.537
374.047
310.537
374.047
374.047
383.76
374.047
310.72
310.537
374.047
310.537
300.954
374.047
383.76
310.72
460.694
310.72
310.72
383.76
303.828
310.72
310.72
310.72
301.832
310.537
398.28
310.537
383.76
310.537
404.261
383.76
374.047
310.72
374.047
310.72
374.047
310.537
374.047
301.636
303.772
310.537
310.72
374.047
416.447
310.72
374.047
310.537
413.843
310.537
468.289
383.76
374.047
374.047
310.537
300.996
374.047
310.72
435.606
383.76
383.76
374.047
383.76
310.537
310.72
383.76
304.15
383.76
383.76
310.72
310.72
383.76
374.047
443.013
383.76
300.729
383.76
301.218
374.047
383.76
303.77
310.537
383.76
383.76
374.047
374.047
310.537
441.806
310.72
310.72
310.537
374.047
374.047
374.047
302.76
310.537
447.28
383.76
383.76
416.094
300.964
310.537
310.72
300.58
374.047
310.537
310.537
300.63
374.047
310.537
310.72
383.76
310.72
374.047
374.047
374.047
383.76
383.76
383.76
383.76
383.76
310.72
310.72
310.72
310.537
310.72
310.537
310.537
383.76
310.537
404.261
310.72
310.537
374.047
310.537
374.047
446.541
374.047
446.253
310.537
310.72
310.537
310.72
310.72
310.72
374.047
310.537
310.537
437.551
310.537
439.232
374.047
383.76
310.72
310.72
374.047
374.047
383.76
383.76
383.76
310.537
310.537
302.163
310.537
383.76
374.047
310.537
374.047
300.845
310.537
383.76
374.047
310.72
374.047
310.537
310.537
383.76
310.537
383.76
310.72
460.691
374.047
300.968
310.72
383.76
383.76
452.017
395.514
374.047
310.537
310.72
310.72
300.675
310.537
383.76
444.312
467.415
383.76
374.047
310.537
310.72
374.047
310.537
383.76
300.63
310.537
301.261
423.624
310.537
383.76
466.566
310.537
310.72
383.76
310.537
374.047
310.72
310.72
310.537
303.163
383.76
383.76
374.047
470.871
310.537
383.76
310.72
383.76
383.76
310.537
302.917
383.76
383.76
374.047
374.047
310.72
310.72
374.047
461.749
383.76
310.537
310.72
374.047
374.047
310.72
310.72
310.537
310.537
418.566
383.76
383.76
383.76
383.76
310.537
374.047
310.537
305.722
383.76
374.047
302.845
310.72
383.76
374.047
310.72
383.76
383.76
374.047
310.72
383.76
435.676
310.537
374.047
409
310.72
310.537
374.047
310.537
310.72
437.942
310.537
310.72
374.047
374.047
310.72
303.772
302.917
310.537
310.537
466.988
465.758
374.047
374.047
310.537
374.047
383.76
300.777
310.537
374.047
437.435
374.047
310.72
310.537
310.537
310.537
374.047
303.831
310.72
453.829
374.047
305.722
310.72
310.537
310.537
304.15
374.047
310.537
310.537
310.72
374.047
310.537
374.047
310.72
310.537
310.72
310.537
310.72
374.047
302.022
456.097
310.537
374.047
374.047
374.047
310.72
383.76
310.537
374.047
302.917
310.537
383.76
310.72
460.694
383.76
467.479
435.676
374.047
374.047
310.72
310.72
310.72
303.163
310.72
442.507
310.537
374.047
463.966
310.72
310.72
374.047
300.729
374.047
310.537
374.047
374.047
374.047
383.76
383.76
300.777
374.047
310.537
374.047
383.76
374.047
383.76
383.76
302.643
310.537
310.72
374.047
383.76
374.047
438.619
383.76
374.047
383.76
310.537
374.047
383.76
310.72
310.72
310.72
445.63
374.047
383.76
310.537
383.76
300.964
374.047
383.76
383.76
310.537
303.019
310.537
301.184
310.72
374.047
374.047
310.72
374.047
310.537
445.641
310.537
416.094
383.76
310.537
374.047
301.184
374.047
374.047
310.72
300.968
383.76
310.537
310.72
301.114
310.537
374.047
383.76
465.451
310.537
374.047
301.184
310.537
310.72
310.72
468.46
374.047
301.23
374.047
374.047
310.72
302.917
310.537
310.72
374.047
383.76
310.537
374.047
303.882
310.537
374.047
374.047
306.178
464.372
310.72
310.72
374.047
374.047
310.72
300.757
374.047
383.76
383.76
310.537
301.173
444.312
374.047
413.945
444.421
383.76
310.72
374.047
310.72
444.248
310.72
303.445
443.623
310.72
437.435
310.537
310.72
374.047
383.76
306.395
310.72
310.537
310.537
310.537
310.537
374.047
310.537
310.72
462.939
310.72
310.537
374.047
302.693
310.72
310.537
374.047
374.047
383.76
310.72
383.76
310.72
383.76
423.624
374.047
310.537
383.76
465.084
383.76
310.72
462.213
374.047
310.72
304.417
383.76
383.76
310.72
374.047
310.72
310.72
383.76
310.537
383.76
303.388
310.72
310.537
310.72
310.537
310.537
374.047
303.693
310.72
310.72
374.047
310.72
383.76
374.047
383.76
310.72
310.537
396.649
383.76
374.047
310.72
374.047
374.047
302.55
310.72
310.537
310.537
374.047
435.676
310.72
374.047
310.537
374.047
383.76
301.176
383.76
310.72
374.047
383.76
374.047
374.047
374.047
444.312
383.76
374.047
374.047
310.537
454.564
310.72
310.72
310.72
310.72
310.537
374.047
302.758
374.047
310.537
374.047
310.537
302.705
383.76
310.537
374.047
310.72
310.537
310.72
383.76
310.72
374.047
300.729
383.76
383.76
310.537
383.76
374.047
374.047
383.76
310.72
310.537
310.537
310.537
383.76
310.72
383.76
310.72
301.121
310.537
310.537
310.537
310.72
310.72
383.76
310.537
310.537
383.76
374.047
310.72
374.047
300.64
374.047
383.76
374.047
441.806
383.76
374.047
304.741
383.76
310.537
445.258
310.72
374.047
310.537
374.047
374.047
310.537
310.537
374.047
310.72
310.537
302.203
300.845
383.76
374.047
461.579
467.106
310.72
374.047
301.428
374.047
374.047
310.72
310.72
374.047
310.537
310.72
302.136
310.72
374.047
302.596
310.537
374.047
374.047
374.047
383.76
374.047
310.72
374.047
310.72
383.76
301.541
310.72
310.537
374.047
383.76
383.76
374.047
310.72
310.537
383.76
310.72
300.887
383.76
383.76
310.72
374.047
301.047
310.72
310.537
383.76
374.047
374.047
374.047
310.537
471.132
310.537
438.714
374.047
310.72
310.537
310.537
310.72
310.537
462.049
454.772
383.76
374.047
310.72
305.07
310.537
310.537
310.537
310.537
383.76
374.047
374.047
374.047
463.858
374.047
374.047
301.428
310.72
310.72
310.72
310.72
374.047
310.72
374.047
300.797
383.76
374.047
310.537
429.909
461.47
310.72
468.143
310.72
310.72
310.72
310.72
310.537
310.537
310.72
310.537
383.76
300.677
438.619
310.537
310.537
302.433
383.76
310.72
383.76
310.537
310.537
310.537
310.537
374.047
310.72
374.047
310.537
302.55
310.72
464.867
462.515
464.688
310.72
310.72
383.76
310.537
413.945
305.206
310.72
383.76
374.047
459.968
310.72
310.537
374.047
310.72
374.047
305.571
374.047
374.047
438.391
374.047
310.72
310.72
383.76
374.047
374.047
374.047
310.72
383.76
310.537
374.047
310.537
306.795
374.047
407.052
310.537
374.047
303.305
310.72
310.72
374.047
300.889
310.72
383.76
374.047
310.72
374.047
310.72
374.047
374.047
310.72
383.76
383.76
302.76
302.651
310.537
310.72
310.537
383.76
304.084
310.537
374.047
374.047
310.72
374.047
310.537
300.598
443.884
396.649
310.537
464.867
441.476
300.887
310.72
467.254
443.213
310.72
374.047
454.564
383.76
383.76
374.047
310.72
310.72
374.047
374.047
310.72
383.76
310.72
310.537
310.537
374.047
374.047
310.72
441.134
310.537
374.047
310.537
310.72
438.714
310.72
310.72
383.76
374.047
383.76
383.76
374.047
374.047
374.047
374.047
310.537
302.643
310.72
374.047
310.72
374.047
374.047
302.806
374.047
374.047
310.537
374.047
383.76
310.72
383.76
383.76
310.537
374.047
310.537
303.556
310.72
310.72
374.047
306.395
301.188
374.047
374.047
310.537
374.047
374.047
301.218
310.72
303.77
383.76
310.72
374.047
301.187
310.72
458.509
374.047
374.047
310.72
302.624
374.047
374.047
374.047
383.76
303.388
383.76
310.72
383.76
383.76
302.203
310.537
310.72
383.76
310.537
310.72
310.537
443.236
310.72
453.829
463.966
374.047
396.649
444.917
383.76
383.76
310.537
310.537
383.76
374.047
374.047
310.72
374.047
374.047
374.047
383.76
383.76
310.72
310.72
310.537
374.047
310.537
310.537
310.72
383.76
310.72
301.446
310.537
300.741
310.537
374.047
452.017
460.691
374.047
442.235
310.72
383.76
383.76
310.537
374.047
383.76
374.047
439.373
420.065
374.047
468.813
310.72
383.76
383.76
374.047
383.76
374.047
310.72
383.76
374.047
310.72
310.72
310.72
383.76
383.76
374.047
310.537
374.047
383.76
301.298
374.047
374.047
374.047
310.537
374.047
310.537
310.537
310.72
383.76
310.72
301.158
383.76
464.713
310.72
310.537
383.76
374.047
374.047
310.72
374.047
383.76
374.047
310.537
310.537
310.72
310.537
383.76
374.047
374.047
310.72
310.537
374.047
310.537
310.537
461.579
383.76
383.76
310.537
310.537
310.537
416.094
310.537
460.691
310.537
374.047
374.047
439.299
310.537
303.019
310.72
310.72
383.76
310.72
310.72
443.236
374.047
310.537
310.537
301.884
374.047
310.72
374.047
310.72
310.537
310.72
300.887
466.988
374.047
465.288
310.537
310.72
310.72
303.77
374.047
310.537
374.047
304.139
302.717
310.537
383.76
301.508
374.047
310.537
310.537
310.72
464.26
310.72
310.72
310.72
310.72
310.537
454.772
310.537
310.72
374.047
383.76
465.288
437.067
374.047
374.047
439.232
374.047
310.72
310.72
383.76
310.537
374.047
445.258
420.065
310.72
383.76
383.76
305.571
310.72
310.537
310.537
310.537
439.299
305.482
310.537
310.72
310.537
374.047
300.951
448.42
383.76
383.76
310.72
383.76
374.047
374.047
374.047
374.047
374.047
464.372
374.047
304.558
310.537
310.72
401.038
310.72
413.843
310.72
310.537
374.047
300.857
301.832
310.537
310.537
310.72
443.013
310.72
300.71
374.047
310.537
440.269
310.537
374.047
310.72
302.609
374.047
374.047
383.76
374.047
383.76
374.047
310.72
310.72
310.72
383.76
310.537
374.047
310.72
383.76
310.537
374.047
374.047
383.76
374.047
302.642
310.72
383.76
310.72
310.537
383.76
374.047
302.433
310.537
374.047
310.537
310.537
310.72
302.845
310.72
383.76
374.047
383.76
383.76
310.537
310.72
310.537
300.964
310.72
374.047
467.106
465.288
310.72
300.692
303.831
310.72
374.047
310.72
310.537
310.537
310.537
302.76
310.537
374.047
374.047
374.047
310.537
404.261
374.047
303.646
300.652
302.651
300.6
374.047
310.537
374.047
310.537
310.537
374.047
310.72
383.76
383.76
383.76
310.72
383.76
383.76
441.159
383.76
471.506
374.047
383.76
383.76
443.236
310.72
374.047
374.047
310.537
310.537
310.72
310.72
310.537
401.038
374.047
310.537
383.76
383.76
310.537
429.909
383.76
302.163
310.537
310.72
374.047
374.047
310.72
374.047
374.047
310.72
383.76
300.939
301.802
310.72
310.72
374.047
374.047
374.047
310.72
398.28
374.047
374.047
374.047
383.76
374.047
310.537
383.76
374.047
374.047
310.537
374.047
310.72
374.047
440.754
310.537
374.047
383.76
310.72
310.72
383.76
461.749
466.332
302.693
441.134
374.047
443.985
383.76
374.047
383.76
383.76
310.537
310.72
383.76
374.047
310.72
310.537
310.72
383.76
310.72
310.72
310.537
310.537
374.047
383.76
374.047
401.038
302.705
435.676
310.537
420.065
383.76
383.76
310.72
300.564
383.76
374.047
310.72
443.623
310.537
310.72
310.537
310.72
310.72
310.537
429.909
383.76
383.76
374.047
310.72
302.806
383.76
302.042
445.151
374.047
374.047
383.76
374.047
305.571
310.72
396.649
383.76
303.97
310.537
374.047
310.72
374.047
303.802
310.72
310.72
374.047
310.537
310.72
310.72
310.537
383.76
300.571
383.76
383.76
310.72
303.883
383.76
442.235
310.537
310.72
310.72
383.76
383.76
374.047
305.32
310.537
383.76
310.537
310.72
458.94
310.72
310.537
374.047
383.76
468.813
374.047
374.047
450.906
374.047
374.047
304.896
383.76
300.647
383.76
383.76
310.537
438.714
374.047
374.047
383.76
310.72
374.047
383.76
304.164
374.047
447.28
374.047
310.537
310.72
310.537
310.72
383.76
383.76
374.047
471.506
431.785
374.047
383.76
374.047
418.566
310.72
310.537
310.537
301.23
300.797
383.76
461.177
310.537
310.537
383.76
383.76
374.047
310.72
438.714
374.047
374.047
310.72
374.047
310.72
310.537
300.757
310.72
374.047
310.537
374.047
374.047
383.76
310.537
374.047
310.537
300.996
302.572
302.624
374.047
383.76
301.428
302.717
300.964
310.537
310.537
310.72
383.76
310.72
310.72
374.047
464.81
374.047
310.72
303.772
310.72
420.065
439.299
374.047
310.537
374.047
310.537
435.117
301.524
310.72
310.72
303.831
374.047
310.537
383.76
301.364
302.643
310.537
374.047
383.76
383.76
374.047
383.76
383.76
301.912
374.047
463.966
310.72
310.72
303.882
374.047
374.047
383.76
383.76
310.537
374.047
467.055
383.76
310.537
374.047
466.237
310.72
374.047
310.537
383.76
310.72
416.447
383.76
310.537
374.047
310.72
383.76
374.047
310.72
310.537
383.76
374.047
374.047
310.72
374.047
383.76
310.72
465.929
310.537
310.537
462.493
310.537
310.72
310.72
310.72
301.184
383.76
310.72
310.537
455.882
310.537
374.047
383.76
383.76
374.047
383.76
310.72
383.76
310.537
310.537
310.537
310.72
310.537
310.72
310.72
310.537
383.76
304.417
310.537
383.76
310.72
310.72
310.537
300.675
383.76
310.72
310.72
383.76
310.537
383.76
383.76
310.72
374.047
374.047
310.72
374.047
304.15
301.187
310.537
310.72
310.72
310.72
310.72
302.917
300.729
374.047
383.76
466.566
310.537
301.378
374.047
310.72
310.72
463.966
310.72
310.537
310.72
310.72
310.72
374.047
310.537
310.72
374.047
310.72
383.76
310.537
310.72
310.537
374.047
383.76
310.537
374.047
374.047
310.72
310.72
310.72
374.047
310.537
300.719
458.129
374.047
310.72
310.72
310.537
383.76
383.76
383.76
310.72
310.537
310.72
467.056
374.047
310.72
301.347
310.537
310.537
310.72
374.047
310.537
383.76
310.537
374.047
374.047
304.139
310.537
374.047
436.446
310.537
383.76
455.363
447.72
453.829
374.047
374.047
383.76
310.72
310.72
469.359
304.896
467.415
310.537
310.72
383.76
310.72
310.72
374.047
310.72
447.887
435.117
374.047
374.047
310.537
310.537
310.72
383.76
310.72
383.76
310.72
310.72
416.447
383.76
374.047
301.218
301.158
310.537
302.042
383.76
310.72
374.047
310.72
374.047
310.72
374.047
374.047
310.537
310.72
383.76
302.609
374.047
310.537
374.047
383.76
383.76
383.76
310.72
374.047
383.76
438.391
383.76
383.76
310.72
374.047
310.72
310.72
310.537
310.72
310.537
310.72
374.047
383.76
437.067
310.537
310.537
374.047
310.72
302.746
310.72
310.72
374.047
374.047
310.537
310.537
310.72
302.917
460.694
300.64
383.76
420.065
374.047
310.72
374.047
300.857
383.76
310.72
374.047
383.76
310.537
374.047
310.537
310.72
310.537
466.899
467.496
301.699
310.72
310.72
310.72
310.537
467.056
310.537
302.042
374.047
303.802
310.537
310.72
383.76
310.537
310.537
383.76
438.779
438.391
301.608
310.72
434.507
374.047
462.493
383.76
310.72
310.72
374.047
383.76
310.72
383.76
374.047
374.047
310.72
310.537
383.76
464.688
383.76
310.72
383.76
383.76
305.571
310.537
310.537
310.537
374.047
383.76
383.76
383.76
310.537
310.72
310.537
303.802
374.047
374.047
374.047
374.047
383.76
374.047
435.676
301.039
303.97
310.72
310.72
383.76
383.76
412.107
374.047
374.047
310.72
443.985
310.537
310.537
310.72
383.76
383.76
310.72
310.537
310.72
383.76
310.537
374.047
374.047
303.445
303.831
310.72
310.72
310.537
310.537
310.537
310.537
310.72
310.72
444.248
310.72
374.047
310.537
374.047
374.047
439.299
310.72
310.72
466.124
310.537
374.047
383.76
374.047
383.76
310.72
374.047
443.623
310.72
300.634
383.76
374.047
374.047
446.119
310.72
310.72
310.72
383.76
300.781
301.261
310.72
466.529
465.288
303.831
303.278
310.537
305.07
303.772
310.537
383.76
310.72
300.6
305.07
374.047
374.047
374.047
374.047
374.047
310.72
465.929
458.94
374.047
374.047
374.047
302.543
301.802
310.72
374.047
310.72
310.72
310.72
310.72
310.537
374.047
374.047
383.76
310.72
435.676
310.72
383.76
310.72
442.507
438.391
374.047
310.537
383.76
383.76
310.537
383.76
301.184
374.047
301.802
310.537
310.537
464.81
310.537
374.047
383.76
310.72
374.047
310.72
310.72
310.537
310.537
310.537
374.047
310.537
454.545
383.76
300.737
383.76
383.76
452.017
310.72
374.047
441.159
374.047
310.72
383.76
374.047
310.537
310.72
310.72
383.76
395.514
300.576
396.649
374.047
310.537
383.76
374.047
383.76
374.047
383.76
374.047
374.047
301.187
310.537
374.047
383.76
310.72
310.72
383.76
374.047
310.537
301.378
310.537
374.047
374.047
310.72
383.76
374.047
383.76
300.777
310.72
310.72
302.572
310.537
306.178
310.537
310.72
374.047
468.112
446.119
443.013
383.76
374.047
310.537
374.047
310.537
301.428
374.047
310.72
310.537
383.76
383.76
301.158
374.047
374.047
310.537
374.047
445.258
374.047
374.047
383.76
374.047
383.76
374.047
374.047
310.537
383.76
383.76
374.047
383.76
310.537
301.298
310.537
310.537
374.047
383.76
310.72
374.047
374.047
470.635
310.72
310.72
374.047
383.76
310.537
310.72
383.76
374.047
383.76
383.76
374.047
310.72
374.047
383.76
310.537
304.558
374.047
383.76
310.72
310.72
374.047
383.76
374.047
374.047
470.136
310.72
310.537
310.537
310.537
310.537
374.047
310.72
310.72
310.537
374.047
383.76
374.047
383.76
310.537
310.72
303.828
310.72
374.047
374.047
374.047
310.72
374.047
300.692
383.76
310.72
374.047
310.537
302.845
374.047
471.15
442.235
310.72
374.047
374.047
383.76
310.72
374.047
310.72
374.047
464.115
310.537
310.72
383.76
374.047
310.72
310.537
310.537
304.084
310.72
374.047
310.537
303.445
374.047
374.047
310.72
303.828
374.047
374.047
443.985
310.72
310.72
374.047
310.72
310.537
374.047
310.537
300.968
460.691
383.76
374.047
310.537
374.047
383.76
310.72
374.047
310.72
310.72
462.213
310.537
383.76
374.047
374.047
383.76
310.72
310.72
310.537
310.72
300.939
310.537
374.047
453.829
383.76
374.047
310.72
448.42
310.72
374.047
374.047
374.047
301.802
310.537
310.537
374.047
310.537
374.047
310.72
303.77
374.047
383.76
383.76
374.047
310.72
310.72
383.76
374.047
302.203
310.537
310.537
302.717
374.047
374.047
310.72
304.563
310.537
310.72
383.76
310.537
310.72
453.038
383.76
437.435
374.047
303.813
303.019
310.537
310.537
301.378
454.109
463.517
310.537