<?xml version="1.0"?>
<VTKFile type="PolyData" version="0.1" byte_order="LittleEndian">
  <PolyData>
    <Piece NumberOfPoints="50000" NumberOfVerts="50000" NumberOfLines="0" NumberOfStrips="0" NumberOfPolys="0">
      <Points>
        <DataArray type="Float32" NumberOfComponents="3" format="ascii">
0.310089 0.00660262 0
-0.29436 0.00231431 0
0.300417 -0.00204675 0
0.313727 -0.00165406 0
-0.256066 0.00494943 0
-0.215108 0.0017584 0
0.103151 -0.0200331 0
-0.264674 6.99555e-05 0
0.0910381 -0.0156074 0
-0.0208235 0.00703366 0
0.235613 -0.00976676 0
0.299306 0.00601712 0
-0.172438 0.00554311 0
-0.122374 -0.0188673 0
-0.32156 0.00185115 0
0.242912 0.00949704 0
-0.0448606 -0.00158636 0
0.311148 0.00126234 0
0.117966 0.00114086 0
-0.29473 0.00296413 0
-0.308826 0.00437024 0
0.269601 0.00523466 0
-0.304789 0.00206687 0
0.303403 -2.28938e-05 0
0.193232 -0.00983284 0
0.225923 0.0100372 0
-0.302193 -0.00576884 0
0.311595 -0.00264431 0
-0.2163 0.018308 0
-0.3182 0.00714065 0
-0.239457 0.00945363 0
-0.222551 -0.012724 0
0.308647 0.000611683 0
0.310646 -0.000823137 0
0.0591664 0.00403065 0
0.315894 -0.00128154 0
0.0959085 0.00120035 0
-0.315578 0.00206374 0
-0.295246 -0.00397337 0
-0.328181 -0.0018485 0
0.227733 0.0102234 0
0.240755 0.00479819 0
-0.301439 -0.00172209 0
0.306692 0.000539372 0
0.317742 0.00101505 0
-0.310367 0.00688321 0
0.302209 0.00383709 0
0.154901 -0.0115631 0
0.298321 0.000261864 0
0.305429 0.000134133 0
0.127996 0.0167367 0
-0.304308 -0.000692843 0
-0.211501 0.00742754 0
0.301474 0.00227587 0
-0.299573 0.00203151 0
-0.319313 0.00214952 0
0.310451 -0.000980575 0
0.125301 0.00907483 0
0.232109 0.00591424 0
0.320503 -0.00378371 0
0.261658 0.0037491 0
0.313773 0.00207905 0
0.0691427 -0.0248602 0
0.320441 -0.00134603 0
-0.103119 0.0132253 0
-0.298679 0.00127203 0
0.304566 -0.00067299 0
0.312858 -0.000464258 0
0.323591 0.00317496 0
0.224028 0.000812611 0
-0.30217 0.00270113 0
0.304184 0.00295066 0
0.166261 0.00102198 0
0.169794 0.00536477 0
0.144824 0.00407407 0
-0.306647 -0.00176687 0
0.26581 0.00974376 0
-0.291081 0.00353323 0
0.234485 0.00539907 0
-0.318616 0.00145393 0
-0.160444 -0.0259332 0
-0.312157 0.00359738 0
0.287604 0.00402044 0
-0.303454 0.00069922 0
0.320109 -0.00360814 0
-0.304196 0.00276804 0
0.320647 -0.00353594 0
-0.136806 -0.00642359 0
-0.132343 0.017897 0
-0.306875 -0.00530739 0
0.301467 0.00522851 0
-0.300169 -0.000281436 0
0.302889 -0.00130709 0
-0.206802 0.0152564 0
-0.0311332 -0.0166678 0
-0.26999 0.00425696 0
0.302408 0.0068107 0
-0.309424 0.00271694 0
-0.326416 0.00586575 0
-0.323677 -0.00058259 0
-0.271326 -0.00562273 0
-0.301299 -0.00414645 0
0.322721 -0.000394215 0
-0.130396 -0.0156992 0
0.325004 -0.000292522 0
0.265976 0.00987795 0
0.195919 0.00529446 0
0.0157091 0.00620965 0
0.298669 0.00360205 0
-0.305359 -0.00336465 0
-0.230138 0.015302 0
-0.309755 0.00264667 0
-0.264288 0.00829596 0
225.853 326.708 0
0.203749 0.00579257 0
-0.305261 0.0029551 0
-0.31656 0.00360939 0
5.79741 7.9306 0
-0.307538 0.00147562 0
-0.0155534 -0.0064986 0
0.311713 -0.000964527 0
-0.296681 -0.00271323 0
0.210386 -0.00253511 0
-0.28358 0.00588976 0
0.305928 -0.000397621 0
0.297367 -0.000595487 0
0.0977067 0.0185063 0
0.314216 0.00352863 0
-0.274933 -0.00509176 0
0.237172 -0.000554856 0
0.316082 -0.00230029 0
0.313531 -0.000183176 0
-0.325066 0.000779135 0
-0.271162 0.00330097 0
0.321136 -0.0012471 0
0.305238 -0.000653079 0
0.294299 -0.00200908 0
-0.0488894 0.00257831 0
0.246013 -0.0107062 0
0.23937 -0.00897251 0
0.245909 -0.0108822 0
0.291826 0.00753308 0
0.315446 -0.002463 0
-0.0731381 -0.0105371 0
-0.315161 0.00535764 0
0.209377 -0.0170942 0
-0.201756 0.0155401 0
-0.310892 0.00172235 0
-0.222165 -0.0150595 0
-0.311878 0.00301947 0
0.238007 0.00582584 0
0.303197 0.00189204 0
-0.0946565 -0.00888143 0
0.246838 -0.00774884 0
0.24545 0.00657215 0
0.300681 0.0031379 0
0.205842 -0.00727955 0
-0.305638 0.00232173 0
-0.131868 -0.00441584 0
0.31456 -0.000152163 0
0.210163 -0.00111476 0
-0.27739 -0.00211072 0
-0.300296 0.00211761 0
-0.312235 0.00216734 0
-0.080725 0.00782393 0
0.24227 -0.00470608 0
0.273839 -0.00414663 0
0.277347 0.00297073 0
0.232016 0.00623094 0
-0.128294 0.000605288 0
0.323959 -0.00362564 0
-0.299326 0.00256438 0
-0.0710325 -0.00436586 0
0.313149 0.00347586 0
-0.0571208 -0.00249431 0
-0.241644 0.0122209 0
-0.300137 0.00208535 0
-0.182541 -0.00830267 0
-0.304299 -0.00162179 0
-0.305639 -0.00489641 0
0.300191 6.31248e-05 0
-0.309128 0.00509411 0
-0.304427 0.00432369 0
0.309945 0.00424218 0
0.302335 -0.000572926 0
0.233705 -0.0131399 0
0.32465 -0.00249897 0
0.321192 0.00046256 0
0.311481 -0.00270867 0
0.0348086 0.0228144 0
0.316782 -0.00268411 0
0.256498 -0.00686861 0
-0.20622 -0.0139361 0
0.285471 0.00506499 0
-0.282817 0.00504805 0
0.300147 0.00147006 0
-0.25197 0.0091669 0
-0.268545 0.00422891 0
-0.301349 0.00312191 0
0.303949 0.00393396 0
-0.201278 0.0147004 0
0.320342 0.00221402 0
0.277891 -0.00406847 0
-0.0632874 -0.00529966 0
0.324477 -0.00370371 0
-0.297085 -0.00600295 0
0.0421687 0.0368072 0
0.128667 -0.00497195 0
-0.26892 0.00837554 0
-0.189459 -0.00766462 0
0.297204 0.00057326 0
-0.13214 -0.0159658 0
0.280024 -0.00268534 0
-0.259896 0.00861764 0
-0.178125 -0.0119994 0
-0.312164 0.00481543 0
-0.308002 0.00607054 0
0.308056 -9.72759e-05 0
-0.316544 -0.000937226 0
-0.0371867 0.0162776 0
-0.243489 0.00916365 0
-0.315944 0.00293803 0
-0.293276 -0.00477522 0
0.321776 -0.00214403 0
0.113905 0.0191018 0
-0.300322 0.00248231 0
0.323427 0.000997347 0
0.310351 -0.000517944 0
-0.266865 0.00765074 0
-0.314748 -0.000325499 0
-0.309753 -0.00281905 0
0.301942 0.00340117 0
0.157276 0.0182776 0
-0.0477794 0.0116679 0
-0.320542 0.00354731 0
-0.275932 0.00467356 0
0.237324 -0.0133473 0
-0.242854 -0.00330145 0
-0.306295 0.00270067 0
0.18805 -0.00212455 0
0.317495 9.36024e-05 0
-0.281293 -0.00509976 0
-0.309856 0.00272854 0
-0.179137 -0.0106478 0
0.155083 0.00538674 0
0.277224 0.00334082 0
-0.292485 0.00555125 0
0.310606 -0.000516252 0
0.319717 0.00216935 0
0.183341 0.0097799 0
0.191276 0.00349462 0
-0.291307 0.00402841 0
0.300044 -0.00213886 0
-0.137811 -0.00709972 0
-0.281787 0.00639584 0
0.300518 -9.50168e-05 0
-0.273123 0.00624072 0
0.265914 0.00704197 0
0.115271 0.0181239 0
0.16639 0.000342002 0
0.319589 0.000825889 0
-0.2912 0.00389549 0
0.0584367 -0.00621493 0
0.0292758 -0.0106126 0
-0.207697 0.00276449 0
-0.305927 0.000946099 0
-0.301228 0.00238149 0
-0.299184 -0.000950208 0
0.307865 -0.000668949 0
0.305455 -0.00049855 0
0.314655 -0.000613028 0
-0.308685 -0.00208148 0
0.201889 0.00249187 0
0.016685 0.00968105 0
-0.322334 0.00400306 0
-0.313398 0.00189276 0
0.298997 -0.000182745 0
-0.299544 0.00244645 0
0.29681 0.00512898 0
-0.303946 -0.000993275 0
-0.294668 2.00249e-05 0
-0.136325 -0.017485 0
-0.308762 0.0020234 0
0.291911 -0.00156442 0
-0.262326 0.0083783 0
-0.295518 -0.00234525 0
-0.11721 0.0154146 0
-0.307876 0.00264302 0
-0.312701 0.00305543 0
0.263297 -0.00225821 0
-0.109723 0.00534515 0
0.307428 -0.000604868 0
0.314166 -0.00211878 0
0.200253 0.0108051 0
0.319066 0.00266957 0
0.303002 0.00489418 0
0.317826 0.00336536 0
-0.211465 0.0180365 0
-0.289181 0.00170933 0
-0.321453 0.000845344 0
0.325961 0.000820628 0
-0.0434235 0.00580015 0
0.306388 -0.00123998 0
0.299066 0.00265218 0
0.315483 -0.000458275 0
0.0540991 0.00949565 0
-0.162087 0.0193361 0
0.265623 0.00425282 0
-0.0370924 0.000435883 0
-0.150968 0.00730846 0
-0.252782 0.00899999 0
0.307366 0.00523608 0
-0.223777 0.0112949 0
0.284407 -0.00400378 0
0.234404 -0.00352448 0
-0.320454 0.0049566 0
0.249981 -0.0111715 0
0.322646 -0.00387949 0
0.288493 -0.0021988 0
0.308374 0.00581332 0
-0.312633 0.00426045 0
-0.0684671 0.0116823 0
0.31458 0.00171473 0
0.313162 -0.000607597 0
0.144455 0.0191512 0
-0.298361 -0.000210892 0
-0.292637 0.004002 0
0.322371 0.000499209 0
-0.299102 -0.00218796 0
0.310993 0.00203387 0
0.313166 -0.00175459 0
0.149923 -0.0178488 0
0.299937 0.00282258 0
-0.307041 0.00268507 0
-0.262607 -0.000333411 0
-0.176329 -0.00181003 0
0.0248882 -0.00580752 0
0.0374247 -0.0223731 0
-0.28164 0.00272706 0
0.139462 -0.0198342 0
-0.0327092 0.0312229 0
-0.317061 0.00481437 0
-0.226472 0.0105988 0
-0.309493 0.00356101 0
-0.128145 -0.0102827 0
0.313028 0.00540308 0
-0.219896 0.0118883 0
-0.313312 0.00010404 0
-49.3591 204.161 0
0.312312 -0.00390707 0
0.311448 -0.000726658 0
-0.255196 0.0110041 0
0.302862 0.00240758 0
0.287287 -0.000646458 0
-443.174 -792.547 0
0.0955198 0.0113673 0
-0.310088 0.00300567 0
-0.257724 -0.00174864 0
0.309201 0.00284553 0
3.14597 -6.48042 0
0.292644 0.003964 0
-0.303509 -0.004465 0
-0.193669 0.00034835 0
-0.308233 -0.0023678 0
-0.314213 0.00532511 0
0.306912 -0.000643495 0
-0.319025 -0.000943961 0
-0.276578 0.00718735 0
0.240796 0.00978079 0
-0.300654 0.000204056 0
-0.250511 0.0110156 0
-0.277974 0.00645274 0
0.310068 0.00337451 0
0.279595 -0.00521536 0
-0.185009 0.0147625 0
0.318829 -0.00145742 0
-0.310256 -0.00417803 0
-0.288473 -0.00262947 0
-0.313591 0.00113183 0
0.0272176 -0.0237227 0
-0.301931 -0.00394339 0
0.305939 0.00340954 0
-0.307646 0.00298789 0
-0.306055 0.0016904 0
-0.0753035 0.0117566 0
0.20026 0.0106598 0
-0.0999046 0.0281133 0
0.0659631 0.0159879 0
-0.310475 0.00316775 0
-0.0560295 0.00293806 0
-0.311069 -0.000577922 0
-0.312647 0.00438285 0
0.298978 -0.0043292 0
0.263292 0.00738499 0
-0.292429 0.00509018 0
0.277919 0.00389674 0
0.275951 0.00119656 0
-0.298304 0.00251733 0
-0.164579 -0.00526973 0
0.218271 -0.0130669 0
-0.298722 0.000811171 0
0.264373 -0.00667862 0
0.121121 -0.00352216 0
-0.306937 -0.00058984 0
0.287206 -0.000312094 0
0.302125 -0.00162537 0
0.306891 -0.00346256 0
0.312624 -0.00103579 0
0.317897 0.00018536 0
0.301375 0.00545404 0
-0.30901 0.00230037 0
0.222294 0.0075909 0
-0.255197 -0.00369552 0
0.145975 0.0206772 0
-0.290919 0.00226985 0
-0.10382 -0.00411293 0
-0.241183 0.00919941 0
0.0882121 -0.0105832 0
-0.315431 0.00317681 0
0.301719 -0.000657261 0
-0.0848639 0.0228609 0
0.108056 0.0121219 0
-0.319666 0.00277366 0
0.303949 0.00161097 0
0.313246 -0.000358135 0
0.299117 0.00678862 0
[...]
      <PointData Scalars="T">
        <DataArray type="Float32" Name="T" format="ascii" NumberOfComponents="1">
312.513
403.724
312.239
312.239
403.724
558.928
312.239
613.417
312.239
403.724
312.239
312.513
403.724
415.732
573.386
312.513
415.732
302.159
301.786
403.724
403.724
312.513
403.724
312.239
312.239
312.513
415.732
312.239
403.724
403.724
403.724
415.732
302.054
312.239
312.513
312.239
301.739
403.724
415.732
415.732
312.513
312.513
415.732
302.866
301.015
403.724
312.513
312.239
308.151
309.811
312.513
415.732
403.724
312.513
403.724
403.724
312.239
312.513
312.513
312.239
312.513
312.513
312.239
312.239
403.724
623.624
312.239
312.239
312.513
301.292
403.724
312.513
300.933
312.513
312.513
415.732
312.513
403.724
312.513
571.244
415.732
403.724
312.513
564.609
312.239
403.724
312.239
415.732
403.724
415.732
312.513
415.732
312.239
403.724
415.732
403.724
312.513
403.724
403.724
415.732
415.732
415.732
312.239
415.732
312.239
312.513
312.513
312.513
312.513
415.732
403.724
403.724
403.724
312.513
312.513
403.724
403.724
312.513
576.043
415.732
312.239
415.732
312.239
403.724
312.239
312.239
312.513
312.513
415.732
312.239
312.239
312.239
635.023
403.724
312.239
312.239
312.239
403.724
312.239
312.239
312.239
312.513
312.239
415.732
403.724
312.239
403.724
559.432
415.732
403.724
312.513
314.94
415.732
312.239
312.513
312.513
312.239
403.724
415.732
312.239
312.239
415.732
403.724
403.724
403.724
312.239
312.239
312.513
312.513
572.981
312.239
403.724
415.732
312.513
415.732
403.724
403.724
415.732
415.732
415.732
311.887
403.724
403.724
312.513
312.239
312.239
312.239
303.894
312.239
312.513
312.239
312.239
415.732
312.513
403.724
303.938
403.724
403.724
403.724
312.513
403.724
312.513
312.239
415.732
312.239
415.732
312.513
312.239
403.724
415.732
302.526
415.732
312.239
403.724
415.732
403.724
403.724
312.239
415.732
403.724
403.724
403.724
415.732
312.239
312.513
403.724
300.998
312.239
403.724
415.732
415.732
312.513
312.513
403.724
403.724
403.724
312.239
415.732
403.724
312.239
311.094
415.732
403.724
415.732
312.513
312.513
403.724
312.239
312.513
312.513
312.513
403.724
312.239
415.732
403.724
312.239
403.724
312.513
312.513
305.527
301.175
403.724
312.239
312.239
403.724
595.635
403.724
415.732
312.239
312.239
312.239
415.732
312.513
312.513
403.724
576.157
312.239
403.724
312.513
415.732
606.729
415.732
403.724
312.239
403.724
415.732
403.724
403.724
403.724
312.239
403.724
312.239
312.239
312.513
312.513
312.513
312.513
403.724
559.632
587.703
301.175
403.724
312.239
312.513
312.239
312.513
403.724
312.513
553.385
403.724
403.724
312.513
403.724
312.239
312.239
403.724
312.239
312.239
312.239
312.513
403.724
403.724
309.124
312.239
312.513
415.732
403.724
303.384
415.732
312.513
312.239
312.239
312.513
403.724
415.732
415.732
312.239
312.239
403.724
312.239
403.724
403.724
403.724
403.724
415.732
312.513
403.724
621.79
403.724
312.239
312.239
403.724
312.513
312.239
415.732
312.513
403.724
415.732
312.513
312.239
312.513
415.732
565.98
415.732
403.724
312.239
415.732
403.724
312.513
590.566
403.724
403.724
312.513
312.239
403.724
312.239
415.732
415.732
621.383
312.239
415.732
312.513
403.724
559.133
403.724
312.513
403.724
312.513
403.724
403.724
415.732
403.724
312.239
312.513
403.724
312.513
301.77
403.724
415.732
312.239
582.414
312.239
312.239
415.732
312.239
312.239
312.239
312.239
308.488
312.513
403.724
312.513
415.732
312.513
403.724
415.732
403.724
312.239
403.724
312.239
403.724
312.513
403.724
306.627
312.239
312.513
312.239
403.724
403.724
312.239
403.724
312.513
403.724
312.513
606.481
415.732
403.724
403.724
312.513
302.015
403.724
312.239
551.223
415.732
415.732
403.724
415.732
312.513
312.239
415.732
312.513
415.732
415.732
312.239
312.239
415.732
403.724
568.601
415.732
301.658
415.732
304.899
403.724
415.732
312.239
312.513
415.732
415.732
403.724
403.724
312.513
564.416
312.239
312.239
312.513
403.724
403.724
403.724
312.239
312.513
576.852
415.732
415.732
403.724
301.839
312.513
312.239
300.954
403.724
312.513
312.513
300.979
403.724
312.513
312.239
415.732
312.239
403.724
403.724
403.724
415.732
415.732
415.732
415.732
415.732
312.239
312.239
312.239
312.513
312.239
312.513
312.513
415.732
312.513
403.724
312.239
312.513
403.724
312.513
403.724
572.456
403.724
571.597
312.513
312.239
312.513
312.239
312.239
312.239
403.724
312.513
312.513
549.553
312.513
557.742
403.724
415.732
312.239
312.239
403.724
403.724
415.732
415.732
415.732
312.513
312.513
307.985
312.513
415.732
403.724
312.513
403.724
302.405
312.513
415.732
403.724
312.239
403.724
312.513
312.513
415.732
312.513
415.732
312.239
627.874
403.724
301.697
312.239
415.732
415.732
593.121
403.724
403.724
312.513
312.239
312.239
301.292
312.513
415.732
569.629
415.732
415.732
403.724
312.513
312.239
403.724
312.513
415.732
300.979
312.513
305.282
403.724
312.513
415.732
618.627
312.513
312.239
415.732
312.513
403.724
312.239
312.239
312.513
312.239
415.732
415.732
403.724
662.819
312.513
415.732
312.239
415.732
415.732
312.513
312.239
415.732
415.732
403.724
403.724
312.239
312.239
403.724
415.732
415.732
312.513
312.239
403.724
403.724
312.239
312.239
312.513
312.513
403.724
415.732
415.732
415.732
415.732
312.513
403.724
312.513
312.513
415.732
403.724
312.239
312.239
415.732
403.724
312.239
415.732
415.732
403.724
312.239
415.732
403.724
312.513
403.724
403.724
312.239
312.513
403.724
312.513
312.239
559.902
312.513
312.239
403.724
403.724
312.239
312.239
312.239
312.513
312.513
415.732
415.732
403.724
403.724
312.513
403.724
415.732
301.954
312.513
403.724
403.724
403.724
312.239
312.513
312.513
312.513
403.724
312.239
312.239
603.64
403.724
312.513
312.239
312.513
312.513
312.513
403.724
312.513
312.513
312.239
403.724
312.513
403.724
312.239
312.513
312.239
312.513
312.239
403.724
307.985
595.237
312.513
403.724
403.724
403.724
312.239
415.732
312.513
403.724
312.239
312.513
415.732
312.239
592.844
415.732
622.294
403.724
403.724
403.724
312.239
312.239
312.239
312.239
312.239
563.859
312.513
403.724
415.732
312.239
312.239
403.724
301.658
403.724
312.513
403.724
403.724
403.724
415.732
415.732
301.954
403.724
312.513
403.724
415.732
403.724
415.732
415.732
312.239
312.513
312.239
403.724
415.732
403.724
560.157
415.732
403.724
415.732
312.513
403.724
415.732
312.239
312.239
312.239
575.584
403.724
415.732
312.513
415.732
301.839
403.724
415.732
415.732
312.513
312.239
312.513
303.572
312.239
403.724
403.724
312.239
403.724
312.513
573.606
312.513
403.724
415.732
312.513
403.724
303.108
403.724
403.724
312.239
301.697
415.732
312.513
312.239
302.419
312.513
403.724
415.732
415.732
312.513
403.724
303.375
312.513
312.239
312.239
415.732
403.724
304.294
403.724
403.724
312.239
312.239
312.513
312.239
403.724
415.732
312.513
403.724
315.431
312.513
403.724
403.724
312.513
620.716
312.239
312.239
403.724
403.724
312.239
301.917
403.724
415.732
415.732
312.513
302.851
569.629
403.724
403.724
568.581
415.732
312.239
403.724
312.239
573.386
312.239
312.239
572.385
312.239
403.724
312.513
312.239
403.724
415.732
312.513
312.239
312.513
312.513
312.513
312.513
403.724
312.513
312.239
415.732
312.239
312.513
403.724
312.239
312.239
312.513
403.724
403.724
415.732
312.239
415.732
312.239
415.732
403.724
403.724
312.513
415.732
611.568
415.732
312.239
608.639
403.724
312.239
312.513
415.732
415.732
312.239
403.724
312.239
312.239
415.732
312.513
415.732
313.998
312.239
312.513
312.239
312.513
312.513
403.724
313.998
312.239
312.239
403.724
312.239
415.732
403.724
415.732
312.239
312.513
403.724
415.732
403.724
312.239
403.724
403.724
311.765
312.239
312.513
312.513
403.724
403.724
312.239
403.724
312.513
403.724
415.732
303.241
415.732
312.239
403.724
415.732
403.724
403.724
403.724
570.741
415.732
403.724
403.724
312.513
585.979
312.239
312.239
312.239
312.239
312.513
403.724
312.239
403.724
312.513
403.724
312.513
310.596
415.732
312.513
403.724
312.239
312.513
312.239
415.732
312.239
403.724
301.636
415.732
415.732
312.513
415.732
403.724
403.724
415.732
312.239
312.513
312.513
312.513
415.732
312.239
415.732
312.239
303.919
312.513
312.513
312.513
312.239
312.239
415.732
312.513
312.513
415.732
403.724
312.239
403.724
300.905
403.724
415.732
403.724
564.416
415.732
403.724
312.513
415.732
312.513
573.386
312.239
403.724
312.513
403.724
403.724
312.513
312.513
403.724
312.239
312.513
310.624
302.405
415.732
403.724
415.732
634.592
312.239
403.724
306.062
403.724
403.724
312.239
312.239
403.724
312.513
312.239
309.811
312.239
403.724
311.887
312.513
403.724
403.724
403.724
415.732
403.724
312.239
403.724
312.239
415.732
306.377
312.239
312.513
403.724
415.732
415.732
403.724
312.239
312.513
415.732
312.239
301.613
415.732
415.732
312.239
403.724
302.159
312.239
312.513
415.732
403.724
403.724
403.724
312.513
613.58
312.513
561.131
403.724
312.239
312.513
312.513
312.239
312.513
604.715
594.17
415.732
403.724
312.239
312.513
312.513
312.513
312.513
312.513
415.732
403.724
403.724
403.724
415.732
403.724
403.724
306.597
312.239
312.239
312.239
312.239
403.724
312.239
403.724
302.054
415.732
403.724
312.513
403.724
627.874
312.239
628.791
312.239
312.239
312.239
312.239
312.513
312.513
312.239
312.513
415.732
301.036
559.432
312.513
312.513
311.887
415.732
312.239
415.732
312.513
312.513
312.513
312.513
403.724
312.239
403.724
312.513
311.963
312.239
612.428
612.595
621.941
312.239
312.239
415.732
312.513
403.724
312.513
312.239
415.732
403.724
559.162
312.239
312.513
403.724
312.239
403.724
312.513
403.724
403.724
549.51
403.724
312.239
312.239
415.732
403.724
403.724
403.724
312.239
415.732
312.513
403.724
312.513
312.513
403.724
403.724
312.513
403.724
312.239
312.239
312.239
403.724
302.685
312.239
415.732
403.724
312.239
403.724
312.239
403.724
403.724
312.239
415.732
415.732
312.239
311.972
312.513
312.239
312.513
415.732
312.513
312.513
403.724
403.724
312.239
403.724
312.513
301.015
567.538
403.724
312.513
612.428
565.861
301.439
312.239
619.46
568.463
312.239
403.724
585.979
415.732
415.732
403.724
312.239
312.239
403.724
403.724
312.239
415.732
312.239
312.513
312.513
403.724
403.724
312.239
565.861
312.513
403.724
312.513
312.239
558.73
312.239
312.239
415.732
403.724
415.732
415.732
403.724
403.724
403.724
403.724
312.513
312.239
312.239
403.724
312.239
403.724
403.724
312.239
403.724
403.724
312.513
403.724
415.732
312.239
415.732
415.732
312.513
403.724
312.513
313.998
312.239
312.239
403.724
312.513
302.851
403.724
403.724
312.513
403.724
403.724
304.899
312.239
312.239
415.732
312.239
403.724
303.52
312.239
599.814
403.724
403.724
312.239
312.239
403.724
403.724
403.724
415.732
313.666
415.732
312.239
415.732
415.732
310.028
312.513
312.239
415.732
312.513
312.239
312.513
575.011
312.239
603.64
415.732
403.724
403.724
566.778
415.732
415.732
312.513
312.513
415.732
403.724
403.724
312.239
403.724
403.724
403.724
415.732
415.732
312.239
312.239
312.513
403.724
312.513
312.513
312.239
415.732
312.239
305.707
312.513
301.744
312.513
403.724
593.121
603.273
403.724
403.724
312.239
415.732
415.732
312.513
403.724
415.732
403.724
565.867
403.724
403.724
622.294
312.239
415.732
415.732
403.724
415.732
403.724
312.239
415.732
403.724
312.239
312.239
312.239
415.732
415.732
403.724
312.513
403.724
415.732
304.441
403.724
403.724
403.724
312.513
403.724
312.513
312.513
312.239
415.732
312.239
302.832
415.732
605.539
312.239
312.513
415.732
403.724
403.724
312.239
403.724
415.732
403.724
312.513
312.513
312.239
312.513
415.732
403.724
403.724
312.239
312.513
403.724
312.513
312.513
415.732
415.732
415.732
312.513
312.513
312.513
403.724
312.513
603.273
312.513
403.724
403.724
559.133
312.513
312.239
312.239
312.239
415.732
312.239
312.239
573.797
403.724
312.513
312.513
308.614
403.724
312.239
403.724
312.239
312.513
312.239
301.613
415.732
403.724
611.231
312.513
312.239
312.239
312.239
403.724
312.513
403.724
312.513
312.239
312.513
415.732
307.002
403.724
312.513
312.513
312.239
415.732
312.239
312.239
312.239
312.239
312.513
594.17
312.513
312.239
403.724
415.732
607.559
556.587
403.724
403.724
559.676
403.724
312.239
312.239
415.732
312.513
403.724
575.584
403.724
312.239
415.732
415.732
312.513
312.239
312.513
312.513
312.513
558.73
312.513
312.513
312.239
312.513
403.724
303.026
582.478
415.732
415.732
312.239
415.732
403.724
403.724
403.724
403.724
403.724
621.941
403.724
312.513
312.513
312.239
403.724
312.239
403.724
312.239
312.513
403.724
301.225
308.37
312.513
312.513
312.239
568.601
312.239
301.453
403.724
312.513
565.561
312.513
403.724
312.239
312.239
403.724
403.724
415.732
403.724
415.732
403.724
312.239
312.239
312.239
415.732
312.513
403.724
312.239
415.732
312.513
403.724
403.724
415.732
403.724
312.239
312.239
415.732
312.239
312.513
415.732
403.724
311.094
312.513
403.724
312.513
312.513
312.239
312.239
312.239
415.732
403.724
415.732
415.732
312.513
312.239
312.513
301.749
312.239
403.724
613.58
612.171
312.239
301.401
312.239
312.239
403.724
312.239
312.513
312.513
312.513
312.239
312.513
403.724
403.724
403.724
312.513
403.724
403.724
312.239
301.151
311.972
300.86
403.724
312.513
403.724
312.513
312.513
403.724
312.239
415.732
415.732
415.732
312.239
415.732
415.732
568.463
415.732
415.732
403.724
415.732
415.732
575.011
312.239
403.724
403.724
312.513
312.513
312.239
312.239
312.513
403.724
403.724
312.513
415.732
415.732
312.513
403.724
415.732
308.582
312.513
312.239
403.724
403.724
312.239
403.724
403.724
312.239
415.732
301.697
308.42
312.239
312.239
403.724
403.724
403.724
312.239
403.724
403.724
403.724
403.724
415.732
403.724
312.513
415.732
403.724
403.724
312.513
403.724
312.239
403.724
568.44
312.513
403.724
415.732
312.239
312.239
415.732
415.732
606.481
312.239
565.861
403.724
565.861
415.732
403.724
415.732
415.732
312.513
312.239
415.732
403.724
312.239
312.513
312.239
415.732
312.239
312.239
312.513
312.513
403.724
415.732
403.724
403.724
310.596
403.724
312.513
403.724
415.732
415.732
312.239
300.887
415.732
403.724
312.239
573.429
312.513
312.239
312.513
312.239
312.239
312.513
403.724
415.732
415.732
403.724
312.239
312.239
415.732
309.195
569.629
403.724
403.724
415.732
403.724
312.513
312.239
403.724
415.732
312.513
312.513
403.724
312.239
403.724
312.239
312.239
312.239
403.724
312.513
312.239
312.239
312.513
415.732
300.879
415.732
415.732
312.239
312.239
415.732
403.724
312.513
312.239
312.239
415.732
415.732
403.724
312.513
312.513
415.732
312.513
312.239
599.396
312.239
312.513
403.724
415.732
622.294
403.724
403.724
579.603
403.724
403.724
312.513
415.732
301.151
415.732
415.732
312.513
559.632
403.724
403.724
415.732
312.239
403.724
415.732
312.513
403.724
568.794
403.724
312.513
312.239
312.513
312.239
415.732
415.732
403.724
415.732
403.724
403.724
415.732
403.724
403.724
312.239
312.513
312.513
304.249
302.054
415.732
415.732
312.513
312.513
415.732
415.732
403.724
312.239
559.632
403.724
403.724
312.239
403.724
312.239
312.513
301.825
312.239
403.724
312.513
403.724
403.724
415.732
312.513
403.724
312.513
302.015
310.093
312.239
403.724
415.732
306.301
312.239
301.749
312.513
312.513
312.239
415.732
312.239
312.239
403.724
610.497
403.724
312.239
312.239
312.239
403.724
558.73
403.724
312.513
403.724
312.513
548.702
306.362
312.239
312.239
312.239
403.724
312.513
415.732
305.707
312.239
312.513
403.724
415.732
415.732
403.724
415.732
415.732
307.429
403.724
415.732
312.239
312.239
315.431
403.724
403.724
415.732
415.732
312.513
403.724
415.732
415.732
312.513
403.724
605.745
312.239
403.724
312.513
415.732
312.239
403.724
415.732
312.513
403.724
312.239
415.732
403.724
312.239
312.513
415.732
403.724
403.724
312.239
403.724
415.732
312.239
617.916
312.513
312.513
612.501
312.513
312.239
312.239
312.239
303.108
415.732
312.239
312.513
597.275
312.513
403.724
415.732
415.732
403.724
415.732
312.239
415.732
312.513
312.513
312.513
312.239
312.513
312.239
312.239
312.513
415.732
312.513
312.513
415.732
312.239
312.239
312.513
301.151
415.732
312.239
312.239
415.732
312.513
415.732
415.732
312.239
403.724
403.724
312.239
403.724
312.513
303.108
312.513
312.239
312.239
312.239
312.239
312.239
301.536
403.724
415.732
619.963
312.513
306.062
403.724
312.239
312.239
415.732
312.239
312.513
312.239
312.239
312.239
403.724
312.513
312.239
403.724
312.239
415.732
312.513
312.239
312.513
403.724
415.732
312.513
403.724
403.724
312.239
312.239
312.239
403.724
312.513
301.085
600.565
403.724
312.239
312.239
312.513
415.732
415.732
415.732
312.239
312.513
312.239
415.732
403.724
312.239
305.704
312.513
312.513
312.239
403.724
312.513
415.732
312.513
403.724
403.724
312.513
312.513
403.724
551.223
312.513
415.732
599.814
571.466
594.281
403.724
403.724
415.732
312.239
312.239
415.732
312.513
415.732
312.513
312.239
415.732
312.239
312.239
403.724
312.239
565.121
549.553
403.724
403.724
312.513
312.513
312.239
415.732
312.239
415.732
312.239
312.239
403.724
415.732
403.724
304.899
302.832
312.513
309.532
415.732
312.239
403.724
312.239
403.724
312.239
403.724
403.724
312.513
312.239
415.732
312.239
403.724
312.513
403.724
415.732
415.732
415.732
312.239
403.724
415.732
549.51
415.732
415.732
312.239
403.724
312.239
312.239
312.513
312.239
312.513
312.239
403.724
415.732
548.702
312.513
312.513
403.724
312.239
312.239
312.239
312.239
403.724
403.724
312.513
312.513
312.239
312.239
592.844
301.015
415.732
403.724
403.724
312.239
403.724
301.487
415.732
312.239
403.724
415.732
312.513
403.724
312.513
312.239
312.513
611.129
415.732
307.108
312.239
312.239
312.239
312.513
415.732
312.513
309.195
403.724
312.239
312.513
312.239
415.732
312.513
312.513
415.732
559.432
549.51
307.585
312.239
403.724
403.724
627.874
415.732
312.239
312.239
403.724
415.732
312.239
415.732
403.724
403.724
312.239
312.513
415.732
606.994
415.732
312.239
415.732
415.732
312.513
312.513
312.513
312.513
403.724
415.732
415.732
415.732
312.513
312.239
312.513
312.239
403.724
403.724
403.724
403.724
415.732
403.724
403.724
303.384
315.431
312.239
312.239
415.732
415.732
403.724
403.724
403.724
312.239
564.609
312.513
312.513
312.239
415.732
415.732
312.239
312.513
312.239
415.732
312.513
403.724
403.724
312.239
312.239
312.239
312.239
312.513
312.513
312.513
312.513
312.239
312.239
568.463
312.239
403.724
312.513
403.724
403.724
559.133
312.239
312.239
616.632
312.513
403.724
415.732
403.724
415.732
312.239
403.724
573.429
312.239
301.079
415.732
403.724
403.724
573.732
312.239
312.239
312.239
415.732
301.345
305.073
312.239
613.584
613.417
312.239
313.193
312.513
312.513
312.239
312.513
415.732
312.239
300.86
312.513
403.724
403.724
403.724
403.724
403.724
312.239
613.417
606.112
403.724
403.724
403.724
309.597
308.42
312.239
403.724
312.239
312.239
312.239
312.239
312.513
403.724
403.724
415.732
312.239
403.724
312.239
415.732
312.239
568.581
559.162
403.724
312.513
415.732
415.732
312.513
415.732
303.748
403.724
308.42
312.513
312.513
610.497
312.513
403.724
415.732
312.239
403.724
312.239
312.239
312.513
312.513
312.513
403.724
312.513
592.795
415.732
301.686
415.732
415.732
582.414
312.239
403.724
566.528
403.724
312.239
415.732
403.724
312.513
312.239
312.239
415.732
403.724
300.892
403.724
403.724
312.513
415.732
403.724
415.732
403.724
415.732
403.724
403.724
303.241
312.513
403.724
415.732
312.239
312.239
415.732
403.724
312.513
305.704
312.513
403.724
403.724
312.239
415.732
403.724
415.732
302.054
312.239
312.239
310.093
312.513
312.513
312.513
312.239
403.724
415.732
571.466
568.44
415.732
403.724
312.513
403.724
312.513
306.062
403.724
312.239
312.513
415.732
415.732
302.832
403.724
403.724
312.513
403.724
576.66
403.724
403.724
415.732
403.724
415.732
403.724
403.724
312.513
415.732
415.732
403.724
415.732
312.513
305.044
312.513
312.513
403.724
415.732
312.239
403.724
403.724
415.732
312.239
312.239
403.724
415.732
312.513
312.239
415.732
403.724
415.732
415.732
403.724
312.239
403.724
415.732
312.513
312.513
403.724
415.732
312.239
312.239
403.724
415.732
403.724
403.724
612.091
312.239
312.513
312.513
312.513
312.513
403.724
312.239
312.239
312.513
403.724
415.732
403.724
415.732
312.513