<?xml version="1.0"?>
<VTKFile type="ImageData" version="0.1" byte_order="LittleEndian">
  <ImageData Origin="0 0 0" Spacing="1e-05 1e-05 1e-05" WholeExtent="0 191 0 191 0 0">
    <Piece Extent="0 191 0 191 0 0">
      <CellData Scalars="T">
        <DataArray type="Float32" Name="T" format="ascii" NumberOfComponents="1">
533.904
15000
15000
15000
15000
15000
15000
15000
15000
15000
15000
15000
15000
15000
14999.9
14999.9
14999.9
14999.9
14999.8
14999.7
14999.6
14999.5
14999.3
14999.1
14998.8
14998.4
14998
14997.4
14996.6
14995.6
14994.4
14992.9
14991.1
14988.7
14985.9
14982.4
14978.2
14973
14966.9
14959.4
14950.5
14939.9
14927.4
14912.6
14895.3
14875.1
14851.5
14824.2
14792.8
14756.7
14715.5
14668.5
14615.4
14555.4
14488
14412.6
14328.7
14235.6
14132.8
14019.7
13895.8
13760.8
13614.1
13455.5
13284.6
13101.4
12905.6
12697.4
12476.7
12243.9
11999.3
11743.3
11476.5
11199.5
10913.2
10618.4
10316.1
10007.4
9693.42
9375.41
9054.64
8732.39
8410
8088.82
7770.16
7455.34
7145.64
6842.27
6546.4
6259.11
5981.4
5714.19
5458.27
5214.35
4983.01
4764.75
4559.92
4368.79
4191.51
4028.14
3878.63
3742.85
3620.58
3511.55
3415.39
3331.69
3260.01
3199.84
3150.67
3111.94
3083.09
3063.56
3052.77
3050.15
3055.14
3067.18
3085.75
3110.32
3140.39
3175.47
3215.1
3258.83
3306.23
3356.9
3410.44
3466.47
3524.63
3584.57
3645.94
3708.42
3771.69
3835.45
3899.38
3963.2
4026.63
4089.38
4151.19
4211.81
4270.99
4328.48
4384.07
4437.55
4488.71
4537.37
4583.37
4626.55
4666.78
4703.93
4737.91
4768.64
4796.04
4820.07
4840.7
4857.9
4871.68
4882.05
4889.04
4892.69
4893.04
4890.16
4884.13
4875.02
4862.94
4847.98
4830.24
4809.86
4786.96
4761.66
4734.12
4704.49
4672.93
4639.61
4604.69
4568.38
4530.85
4492.3
4452.91
4412.85
4372.23
4331.11
4289.37
4246.57
4201.66
4152.44
4094.46
4018.91
3908.63
3729.97
3416.58
2834.39
1699.03
321.288
1239.87
15000
15000
15000
15000
15000
15000
15000
15000
15000
15000
15000
15000
15000
14999.9
14999.9
14999.9
14999.9
14999.8
14999.7
14999.6
14999.5
14999.3
14999.1
14998.8
14998.4
14998
14997.4
14996.6
14995.6
14994.4
14992.9
14991.1
14988.7
14985.9
14982.4
14978.2
14973.1
14966.9
14959.4
14950.5
14940
14927.4
14912.7
14895.3
14875.1
14851.6
14824.3
14792.9
14756.8
14715.5
14668.6
14615.5
14555.5
14488.1
14412.8
14328.8
14235.7
14132.9
14019.9
13896.1
13761
13614.4
13455.8
13285
13101.7
12906
12697.8
12477.1
12244.4
11999.7
11743.7
11476.9
11200
10913.6
10618.8
10316.5
10007.8
9693.83
9375.81
9055
8732.71
8410.27
8089.03
7770.31
7455.42
7145.64
6842.19
6546.22
6258.83
5981.02
5713.69
5457.66
5213.61
4982.15
4763.75
4558.78
4367.52
4190.1
4026.58
3876.93
3741
3618.59
3509.41
3413.11
3329.27
3257.44
3197.14
3147.83
3108.97
3079.99
3060.33
3049.42
3046.68
3051.55
3063.49
3081.95
3106.42
3136.39
3171.38
3210.92
3254.57
3301.9
3352.5
3405.97
3461.95
3520.05
3579.95
3641.28
3703.73
3766.98
3830.72
3894.64
3958.46
4021.9
4084.66
4146.5
4207.14
4266.35
4323.89
4379.52
4433.05
4484.27
4532.99
4579.06
4622.3
4662.6
4699.83
4733.88
4764.68
4792.16
4816.27
4836.97
4854.24
4868.09
4878.53
4885.58
4889.28
4889.69
4886.87
4880.88
4871.82
4859.78
4844.85
4827.15
4806.8
4783.92
4758.64
4731.13
4701.51
4669.97
4636.66
4601.76
4565.46
4527.95
4489.41
4450.03
4409.98
4369.38
4328.28
4286.56
4243.78
4198.91
4149.77
4091.95
4016.81
3907.63
3732.27
3429.63
2885.83
1899.38
366.274
1245.26
15000
15000
15000
15000
15000
15000
15000
15000
15000
15000
15000
15000
15000
14999.9
14999.9
14999.9
14999.9
14999.8
14999.7
14999.6
14999.5
14999.3
14999.1
14998.8
14998.4
14998
14997.4
14996.6
14995.6
14994.4
14992.9
14991.1
14988.8
14985.9
14982.4
14978.2
14973.1
14966.9
14959.4
14950.6
14940
14927.5
14912.7
14895.4
14875.2
14851.6
14824.4
14793
14756.9
14715.7
14668.8
14615.6
14555.7
14488.4
14413
14329.1
14236.1
14133.3
14020.3
13896.5
13761.6
13615
13456.4
13285.6
13102.4
12906.7
12698.5
12477.9
12245.2
12000.6
11744.6
11477.8
11200.9
10914.6
10619.7
10317.4
10008.7
9694.67
9376.59
9055.71
8733.34
8410.81
8089.46
7770.61
7455.58
7145.65
6842.02
6545.88
6258.29
5980.27
5712.71
5456.44
5212.15
4980.43
4761.77
4556.54
4364.99
4187.29
4023.49
3873.55
3737.34
3614.64
3505.17
3408.57
3324.45
3252.35
3191.77
3142.18
3103.06
3073.82
3053.91
3042.75
3039.77
3044.42
3056.13
3074.38
3098.64
3128.42
3163.23
3202.59
3246.08
3293.26
3343.72
3397.07
3452.93
3510.93
3570.73
3631.99
3694.39
3757.59
3821.29
3885.2
3949.02
4012.46
4075.25
4137.13
4197.83
4257.1
4314.72
4370.45
4424.08
4475.41
4524.25
4570.44
4613.83
4654.27
4691.64
4725.84
4756.79
4784.42
4808.67
4829.52
4846.94
4860.92
4871.49
4878.67
4882.49
4883.01
4880.29
4874.4
4865.43
4853.46
4838.61
4820.97
4800.68
4777.85
4752.62
4725.14
4695.57
4664.06
4630.78
4595.91
4559.64
4522.15
4483.63
4444.28
4404.26
4363.69
4322.62
4280.94
4238.21
4193.42
4144.41
4086.84
4012.29
3904.49
3732.48
3437.88
2911.9
1953.64
366.094
1237.53
15000
15000
15000
15000
15000
15000
15000
15000
15000
15000
15000
15000
15000
14999.9
14999.9
14999.9
14999.9
14999.8
14999.7
14999.6
14999.5
14999.3
14999.1
14998.8
14998.4
14998
14997.4
14996.6
14995.7
14994.4
14992.9
14991.1
14988.8
14985.9
14982.5
14978.2
14973.1
14966.9
14959.5
14950.6
14940
14927.5
14912.8
14895.5
14875.3
14851.8
14824.5
14793.1
14757.1
14715.9
14669
14615.9
14556
14488.7
14413.4
14329.6
14236.6
14133.9
14020.9
13897.2
13762.3
13615.8
13457.3
13286.6
13103.4
12907.8
12699.7
12479.1
12246.5
12001.9
11746
11479.2
11202.3
10915.9
10621.1
10318.8
10010
9695.92
9377.76
9056.78
8734.29
8411.62
8090.11
7771.07
7455.84
7145.67
6841.79
6545.37
6257.49
5979.16
5711.27
5454.65
5209.99
4977.9
4758.85
4553.21
4361.25
4183.13
4018.91
3868.54
3731.89
3608.76
3498.86
3401.84
3317.3
3244.77
3183.78
3133.79
3094.26
3064.64
3044.35
3032.82
3029.49
3033.79
3045.17
3063.1
3087.06
3116.55
3151.08
3190.19
3233.43
3280.38
3330.63
3383.79
3439.47
3497.32
3556.99
3618.14
3680.44
3743.57
3807.22
3871.1
3934.91
3998.37
4061.2
4123.13
4183.91
4243.28
4301.02
4356.88
4410.66
4462.16
4511.19
4557.57
4601.16
4641.8
4679.39
4713.82
4744.99
4772.84
4797.31
4818.38
4836
4850.2
4860.96
4868.33
4872.33
4873.02
4870.45
4864.71
4855.86
4844.02
4829.27
4811.73
4791.52
4768.77
4743.61
4716.2
4686.68
4655.22
4621.98
4587.16
4550.92
4513.48
4475
4435.69
4395.71
4355.18
4314.16
4272.54
4229.88
4185.19
4136.33
4079.06
4005.08
3898.48
3728.92
3439.01
2920.88
1972.67
364.722
1237.51
15000
15000
15000
15000
15000
15000
15000
15000
15000
15000
15000
15000
15000
14999.9
14999.9
14999.9
14999.9
14999.8
14999.7
14999.6
14999.5
14999.3
14999.1
14998.8
14998.5
14998
14997.4
14996.6
14995.7
14994.5
14992.9
14991.1
14988.8
14985.9
14982.5
14978.2
14973.1
14966.9
14959.5
14950.7
14940.1
14927.6
14912.9
14895.6
14875.4
14851.9
14824.7
14793.3
14757.3
14716.2
14669.4
14616.3
14556.4
14489.2
14414
14330.2
14237.3
14134.7
14021.8
13898.1
13763.3
13616.9
13458.5
13287.8
13104.8
12909.2
12701.2
12480.7
12248.1
12003.6
11747.7
11481
11204.1
10917.8
10622.9
10320.6
10011.7
9697.58
9379.32
9058.21
8735.57
8412.71
8090.98
7771.7
7456.19
7145.72
6841.52
6544.74
6256.47
5977.72
5709.4
5452.32
5207.18
4974.59
4755.02
4548.85
4356.35
4177.68
4012.89
3861.96
3724.74
3601.04
3490.57
3392.98
3307.88
3234.8
3173.25
3122.73
3082.68
3052.54
3031.74
3019.73
3015.92
3019.76
3030.71
3048.21
3071.77
3100.86
3135.03
3173.79
3216.71
3263.35
3313.32
3366.22
3421.68
3479.32
3538.81
3599.8
3661.97
3725.01
3788.59
3852.43
3916.23
3979.7
4042.58
4104.59
4165.46
4224.97
4282.85
4338.89
4392.87
4444.59
4493.85
4540.49
4584.34
4625.26
4663.14
4697.85
4729.32
4757.46
4782.23
4803.57
4821.48
4835.95
4846.98
4854.59
4858.83
4859.74
4857.38
4851.82
4843.16
4831.47
4816.87
4799.46
4779.37
4756.72
4731.66
4704.32
4674.88
4643.48
4610.31
4575.54
4539.37
4501.97
4463.55
4424.29
4384.37
4343.9
4302.94
4261.39
4218.82
4174.24
4125.56
4068.57
3995.09
3889.38
3721.3
3433.31
2914.99
1950.57
361.811
1244.15
15000
15000
15000
15000
15000
15000
15000
15000
15000
15000
15000
15000
15000
14999.9
14999.9
14999.9
14999.9
14999.8
14999.7
14999.6
14999.5
14999.3
14999.1
14998.8
14998.5
14998
14997.4
14996.6
14995.7
14994.5
14993
14991.1
14988.8
14986
14982.5
14978.3
14973.2
14967
14959.6
14950.7
14940.2
14927.7
14913
14895.7
14875.6
14852.1
14824.9
14793.6
14757.6
14716.5
14669.8
14616.8
14557
14489.8
14414.7
14331
14238.1
14135.6
14022.8
13899.3
13764.5
13618.2
13459.9
13289.4
13106.4
12911
12703.1
12482.7
12250.2
12005.8
11749.9
11483.2
11206.4
10920
10625.2
10322.8
10013.9
9699.65
9381.26
9059.99
8737.16
8414.08
8092.08
7772.51
7456.67
7145.82
6841.21
6543.99
6255.25
5975.99
5707.14
5449.49
5203.76
4970.55
4750.34
4543.52
4350.35
4171
4005.52
3853.89
3715.97
3591.56
3480.39
3382.1
3296.3
3222.53
3160.31
3109.12
3068.41
3037.63
3016.21
3003.59
2999.19
3002.46
3012.86
3029.84
3052.88
3081.5
3115.2
3153.53
3196.04
3242.31
3291.92
3344.5
3399.66
3457.04
3516.3
3577.1
3639.11
3702.02
3765.51
3829.29
3893.07
3956.56
4019.49
4081.58
4142.58
4202.24
4260.31
4316.56
4370.78
4422.76
4472.32
4519.26
4563.44
4604.7
4642.93
4678
4709.83
4738.33
4763.46
4785.16
4803.42
4818.22
4829.58
4837.5
4842.03
4843.21
4841.11
4835.79
4827.35
4815.86
4801.44
4784.19
4764.25
4741.73
4716.79
4689.56
4660.21
4628.9
4595.81
4561.11
4525.01
4487.68
4449.33
4410.14
4370.28
4329.89
4289.01
4247.54
4205.08
4160.63
4112.13
4055.4
3982.34
3877.26
3710.04
3422.62
2902.38
1930.32
360.712
1243.98
15000
15000
15000
15000
15000
15000
15000
15000
15000
15000
15000
15000
15000
14999.9
14999.9
14999.9
14999.9
14999.8
14999.7
14999.6
14999.5
14999.3
14999.1
14998.8
14998.5
14998
14997.4
14996.6
14995.7
14994.5
14993
14991.1
14988.8
14986
14982.5
14978.3
14973.2
14967
14959.6
14950.8
14940.3
14927.8
14913.1
14895.9
14875.8
14852.3
14825.2
14793.9
14758
14717
14670.2
14617.3
14557.6
14490.5
14415.4
14331.8
14239.1
14136.7
14024
13900.6
13766
13619.8
13461.6
13291.2
13108.4
12913.1
12705.3
12485
12252.6
12008.3
11752.5
11485.9
11209
10922.7
10627.9
10325.4
10016.5
9702.11
9383.57
9062.13
8739.07
8415.72
8093.43
7773.5
7457.27
7146
6840.91
6543.17
6253.87
5974.02
5704.53
5446.22
5199.79
4965.86
4744.9
4537.31
4343.35
4163.19
3996.9
3844.43
3705.68
3580.44
3468.43
3369.31
3282.68
3208.1
3145.07
3093.08
3051.6
3020.06
2997.9
2984.55
2979.45
2982.04
2991.78
3008.12
3030.56
3058.6
3091.75
3129.56
3171.58
3217.39
3266.58
3318.77
3373.57
3430.64
3489.62
3550.18
3611.99
3674.74
3738.12
3801.83
3865.57
3929.08
3992.06
4054.24
4115.38
4175.21
4233.49
4289.99
4344.49
4396.79
4446.67
4493.98
4538.54
4580.21
4618.84
4654.34
4686.59
4715.53
4741.08
4763.2
4781.87
4797.08
4808.81
4817.11
4821.98
4823.5
4821.7
4816.67
4808.49
4797.24
4783.04
4765.99
4746.22
4723.87
4699.07
4671.97
4642.73
4611.53
4578.53
4543.93
4507.91
4470.66
4432.39
4393.29
4353.51
4313.21
4272.43
4231.06
4188.71
4144.41
4096.08
4039.61
3966.92
3862.41
3696.08
3410.33
2895.03
1941.45
361.558
1255.48
15000
15000
15000
15000
15000
15000
15000
15000
15000
15000
15000
15000
15000
14999.9
14999.9
14999.9
14999.9
14999.8
14999.7
14999.6
14999.5
14999.3
14999.1
14998.8
14998.5
14998
14997.4
14996.6
14995.7
14994.5
14993
14991.1
14988.8
14986
14982.6
14978.4
14973.3
14967.1
14959.7
14950.9
14940.4
14928
14913.3
14896.1
14876
14852.6
14825.5
14794.3
14758.4
14717.4
14670.8
14617.9
14558.3
14491.3
14416.3
14332.8
14240.2
14137.9
14025.4
13902.1
13767.6
13621.6
13463.6
13293.3
13110.6
12915.5
12707.8
12487.7
12255.4
12011.2
11755.5
11488.9
11212.1
10925.9
10631
10328.5
10019.4
9704.96
9386.26
9064.61
8741.31
8417.66
8095.02
7774.71
7458.03
7146.26
6840.63
6542.31
6252.38
5971.85
5701.64
5442.57
5195.35
4960.59
4738.78
4530.3
4335.44
4154.35
3987.12
3833.71
3694
3567.8
3454.83
3354.76
3267.18
3191.65
3127.7
3074.79
3032.41
2999.99
2976.97
2962.78
2956.87
2958.67
2967.64
2983.25
3004.99
3032.35
3064.86
3102.06
3143.51
3188.78
3237.48
3289.2
3343.59
3400.29
3458.93
3519.21
3580.78
3643.33
3706.57
3770.18
3833.89
3897.39
3960.42
4022.71
4083.99
4144.01
4202.53
4259.31
4314.12
4366.76
4417.04
4464.75
4509.75
4551.87
4590.97
4626.95
4659.69
4689.12
4715.16
4737.77
4756.91
4772.57
4784.76
4793.47
4798.76
4800.65
4799.22
4794.52
4786.64
4775.67
4761.73
4744.91
4725.35
4703.19
4678.55
4651.61
4622.51
4591.43
4558.55
4524.05
4488.13
4450.99
4412.82
4373.81
4334.13
4293.94
4253.26
4212.02
4169.8
4125.65
4077.52
4021.3
3948.99
3845.09
3679.84
3396.36
2886.24
1941.41
363.735
1243.92
15000
15000
15000
15000
15000
15000
15000
15000
15000
15000
15000
15000
15000
14999.9
14999.9
14999.9
14999.9
14999.8
14999.7
14999.6
14999.5
14999.3
14999.1
14998.8
14998.5
14998
14997.4
14996.6
14995.7
14994.5
14993
14991.1
14988.9
14986
14982.6
14978.4
14973.3
14967.2
14959.8
14951
14940.5
14928.1
14913.5
14896.3
14876.2
14852.9
14825.8
14794.7
14758.9
14718
14671.4
14618.6
14559.1
14492.2
14417.3
14334
14241.5
14139.3
14026.9
13903.8
13769.5
13623.6
13465.7
13295.7
13113.2
12918.2
12710.6
12490.7
12258.5
12014.4
11758.8
11492.4
11215.6
10929.3
10634.5
10331.9
10022.8
9708.18
9389.32
9067.45
8743.87
8419.9
8096.88
7776.13
7458.96
7146.65
6840.43
6541.45
6250.82
5969.54
5698.53
5438.62
5190.51
4954.83
4732.06
4522.6
4326.72
4144.61
3976.33
3821.85
3681.07
3553.8
3439.75
3338.6
3249.95
3173.36
3108.36
3054.42
3011.02
2977.61
2953.61
2938.48
2931.64
2932.54
2940.65
2955.43
2976.36
3002.96
3034.74
3071.24
3112.03
3156.69
3204.81
3256.01
3309.92
3366.18
3424.44
3484.38
3545.67
3607.99
3671.05
3734.55
3798.18
3861.68
3924.76
3987.14
4048.58
4108.8
4167.57
4224.65
4279.81
4332.83
4383.53
4431.7
4477.17
4519.79
4559.42
4595.94
4629.22
4659.2
4685.79
4708.94
4728.62
4744.8
4757.48
4766.68
4772.42
4774.75
4773.72
4769.4
4761.87
4751.22
4737.57
4721.02
4701.71
4679.76
4655.32
4628.55
4599.61
4568.68
4535.94
4501.57
4465.77
4428.74
4390.68
4351.78
4312.23
4272.15
4231.6
4190.49
4148.42
4104.43
4056.51
4000.57
3928.67
3825.44
3661.43
3380.41
2875.48
1944.82
364.939
1233.08
15000
15000
15000
15000
15000
15000
15000
15000
15000
15000
15000
15000
15000
14999.9
14999.9
14999.9
14999.9
14999.8
14999.7
14999.6
14999.5
14999.3
14999.1
14998.8
14998.5
14998
14997.4
14996.6
14995.7
14994.5
14993
14991.2
14988.9
14986.1
14982.6
14978.4
14973.4
14967.2
14959.9
14951.1
14940.7
14928.3
14913.7
14896.5
14876.5
14853.2
14826.2
14795.1
14759.4
14718.5
14672
14619.4
14559.9
14493.2
14418.4
14335.2
14242.9
14140.8
14028.6
13905.7
13771.5
13625.8
13468.1
13298.2
13115.9
12921.1
12713.7
12493.9
12261.9
12018
11762.5
11496.1
11219.4
10933.2
10638.3
10335.7
10026.5
9711.78
9392.73
9070.62
8746.75
8422.43
8099.01
7777.79
7460.09
7147.2
6840.32
6540.64
6249.24
5967.14
5695.26
5434.43
5185.36
4948.66
4724.85
4514.31
4317.33
4134.08
3964.64
3809
3667.04
3538.58
3423.34
3321
3231.17
3153.41
3087.25
3032.17
2987.64
2953.12
2928.04
2911.85
2903.98
2903.89
2911.03
2924.87
2944.91
2970.64
3001.6
3037.32
3077.37
3121.34
3168.81
3219.41
3272.77
3328.53
3386.36
3445.91
3506.87
3568.93
3631.78
3695.12
3758.67
3822.14
3885.25
3947.73
4009.31
4069.75
4128.79
4186.18
4241.71
4295.14
4346.29
4394.95
4440.95
4484.12
4524.32
4561.42
4595.3
4625.88
4653.07
4676.82
4697.09
4713.84
4727.08
4736.81
4743.07
4745.88
4745.3
4741.4
4734.26
4723.98
4710.66
4694.41
4675.37
4653.67
4629.45
4602.89
4574.13
4543.37
4510.78
4476.56
4440.9
4404
4366.07
4327.31
4287.88
4247.94
4207.53
4166.56
4124.65
4080.85
4033.15
3977.51
3906.05
3803.55
3640.88
3362.42
2862.32
1939.75
365.715
1223.3
15000
15000
15000
15000
15000
15000
15000
15000
15000
15000
15000
15000
15000
14999.9
14999.9
14999.9
14999.9
14999.8
14999.7
14999.6
14999.5
14999.3
14999.1
14998.8
14998.5
14998
14997.4
14996.7
14995.7
14994.5
14993
14991.2
14988.9
14986.1
14982.7
14978.5
14973.4
14967.3
14960
14951.2
14940.8
14928.4
14913.9
14896.8
14876.8
14853.5
14826.6
14795.6
14759.9
14719.1
14672.8
14620.2
14560.9
14494.2
14419.6
14336.5
14244.3
14142.5
14030.4
13907.7
13773.7
13628.2
13470.7
13301
13118.9
12924.3
12717.1
12497.5
12265.6
12021.8
11766.5
11500.2
11223.6
10937.4
10642.6
10339.9
10030.6
9715.75
9396.5
9074.15
8749.97
8425.28
8101.42
7779.71
7461.45
7147.92
6840.36
6539.92
6247.7
5964.72
5691.91
5430.09
5179.98
4942.2
4717.26
4505.55
4307.37
4122.9
3952.21
3795.3
3652.06
3522.31
3405.78
3302.15
3211.04
3132
3064.57
3008.24
2962.48
2926.74
2900.48
2883.12
2874.13
2872.93
2879.01
2891.82
2910.86
2935.65
2965.69
3000.55
3039.78
3082.97
3129.73
3179.66
3232.4
3287.6
3344.92
3404.04
3464.62
3526.36
3588.96
3652.12
3715.56
3778.98
3842.1
3904.67
3966.4
4027.05
4086.36
4144.08
4199.99
4253.86
4305.48
4354.67
4401.22
4444.98
4485.79
4523.52
4558.05
4589.28
4617.12
4641.52
4662.43
4679.81
4693.65
4703.97
4710.78
4714.12
4714.04
4710.61
4703.91
4694.02
4681.07
4665.16
4646.43
4625
4601.04
4574.71
4546.16
4515.59
4483.18
4449.12
4413.62
4376.88
4339.1
4300.48
4261.2
4221.4
4181.15
4140.35
4098.62
4055.02
4007.56
3952.24
3881.24
3779.48
3618.04
3341.51
2843.77
1921.73
364.56
1217.53
15000
15000
15000
15000
15000
15000
15000
15000
15000
15000
15000
15000
15000
14999.9
14999.9
14999.9
14999.9
14999.8
14999.7
14999.6
14999.5
14999.3
14999.1
14998.8
14998.5
14998
14997.4
14996.7
14995.7
14994.5
14993.1
14991.2
14988.9
14986.1
14982.7
14978.6
14973.5
14967.4
14960.1
14951.4
14940.9
14928.6
14914.1
14897
14877.1
14853.9
14827
14796
14760.5
14719.8
14673.5
14621.1
14561.9
14495.3
14420.9
14338
14245.9
14144.3
14032.4
13909.8
13776.1
13630.8
13473.5
13304
13122.1
12927.7
12720.8
12501.3
12269.7
12026
11770.8
11504.7
11228.1
10942
10647.1
10344.5
10035.1
9720.06
9400.62
9078.01
8753.52
8428.45
8104.13
7781.9
7463.05
7148.87
6840.57
6539.33
6246.25
5962.35
5688.54
5425.67
5174.46
4935.53
4709.39
4496.44
4296.98
4111.2
3939.18
3780.92
3636.31
3505.18
3387.26
3282.25
3189.74
3109.33
3040.53
2982.85
2935.75
2898.71
2871.16
2852.55
2842.32
2839.93
2844.85
2856.54
2874.5
2898.24
2927.28
2961.19
2999.52
3041.86
3087.82
3137
3189.06
3243.64
3300.4
3359.02
3419.17
3480.55
3542.86
3605.81
3669.09
3732.43
3795.56
3858.19
3920.06
3980.91
4040.49
4098.54
4154.85
4209.17
4261.29
4311.02
4358.15
4402.53
4443.99
4482.39
4517.61
4549.53
4578.07
4603.17
4624.76
4642.81
4657.31
4668.26
4675.67
4679.59
4680.05
4677.13
4670.9
4661.46
4648.91
4633.38
4614.98
4593.87
4570.19
4544.11
4515.8
4485.45
4453.24
4419.37
4384.04
4347.47
4309.85
4271.4
4232.28
4192.65
4152.57
4111.95
4070.41
4027.03
3979.82
3924.84
3854.32
3753.32
3593.09
3318.51
2823.44
1901.39
362.96
1228.65
15000
15000
15000
15000
15000
15000
15000
15000
15000
15000
15000
15000
15000
14999.9
14999.9
14999.9
14999.9
14999.8
14999.7
14999.6
14999.5
14999.3
14999.1
14998.8
14998.5
14998
14997.4
14996.7
14995.7
14994.6
14993.1
14991.2
14989
14986.2
14982.8
14978.6
14973.6
14967.5
14960.2
14951.5
14941.1
14928.8
14914.3
14897.3
14877.4
14854.3
14827.5
14796.6
14761.1
14720.5
14674.3
14622
14562.9
14496.5
14422.2
14339.5
14247.6
14146.1
14034.5
13912.1
13778.6
13633.5
13476.5
13307.2
13125.6
12931.4
12724.6
12505.4
12273.9
12030.5
11775.5
11509.4
11233
10946.9
10652
10349.4
10039.9
9724.72
9405.09
9082.22
8757.4
8431.94
8107.16
7784.39
7464.93
7150.06
6841.01
6538.94
6244.96
5960.08
5685.24
5421.27
5168.9
4928.76
4701.35
4487.1
4286.3
4099.14
3925.71
3766.01
3619.95
3487.35
3367.97
3261.47
3167.5
3085.61
3015.36
2956.23
2907.71
2869.26
2840.33
2820.37
2808.83
2805.15
2808.81
2819.29
2836.08
2858.69
2886.65
2919.52
2956.87
2998.28
3043.36
3091.74
3143.04
3196.93
3253.07
3311.13
3370.8
3431.77
3493.74
3556.42
3619.52
3682.75
3745.84
3808.52
3870.51
3931.55
3991.4
4049.78
4106.48
4161.26
4213.9
4264.18
4311.93
4356.95
4399.09
4438.19
4474.12
4506.78
4536.06
4561.89
4584.21
4602.98
4618.18
4629.8
4637.86
4642.39
4643.44
4641.07
4635.36
4626.4
4614.29
4599.16
4581.14
4560.37
4537
4511.21
4483.16
4453.05
4421.06
4387.4
4352.27
4315.89
4278.46
4240.19
4201.25
4161.81
4121.91
4081.48
4040.15
3997
3950.07
3895.43
3825.42
3725.2
3566.31
3294.28
2805.56
1905.69
363.163
1265.25
15000
15000
15000
15000
15000
15000
15000
15000
15000
15000
15000
15000
15000
14999.9
14999.9
14999.9
14999.9
14999.8
14999.7
14999.6
14999.5
14999.3
14999.1
14998.8
14998.5
14998
14997.4
14996.7
14995.7
14994.6
14993.1
14991.3
14989
14986.2
14982.8
14978.7
14973.7
14967.6
14960.3
14951.6
14941.3
14929
14914.6
14897.6
14877.8
14854.7
14828
14797.1
14761.7
14721.3
14675.2
14623
14564
14497.8
14423.7
14341.1
14249.4
14148.1
14036.6
13914.5
13781.2
13636.4
13479.6
13310.6
13129.2
12935.2
12728.7
12509.7
12278.5
12035.2
11780.3
11514.4
11238.1
10952.1
10657.3
10354.6
10045
9729.72
9409.9
9086.77
8761.62
8435.76
8110.51
7787.19
7467.1
7151.53
6841.7
6538.77
6243.86
5957.98
5682.07
5416.96
5163.39
4921.98
4693.27
4477.65
4275.44
4086.84
3911.94
3750.74
3603.15
3469.02
3348.08
3240.03
3144.5
3061.07
2989.27
2928.62
2878.59
2838.65
2808.25
2786.85
2773.9
2768.85
2771.17
2780.35
2795.88
2817.28
2844.08
2875.84
2912.12
2952.53
2996.66
3044.14
3094.63
3147.76
3203.21
3260.65
3319.78
3380.28
3441.87
3504.24
3567.11
3630.2
3693.23
3755.92
3818.01
3879.23
3939.32
3998.03
4055.12
4110.36
4163.51
4214.37
4262.74
4308.42
4351.25
4391.08
4427.77
4461.18
4491.24
4517.84
4540.92
4560.45
4576.38
4588.72
4597.47
4602.66
4604.34
4602.56
4597.4
4588.95
4577.32
4562.64
4545.02
4524.62
4501.6
4476.12
4448.36
4418.51
4386.77
4353.34
4318.43
4282.26
4245.03
4206.96
4168.22
4128.97
4089.28
4049.06
4007.95
3965.04
3918.4
3864.14
3794.65
3695.25
3537.74
3268.18
2783.39
1883.73
359.742
1303.58
15000
15000
15000
15000
15000
15000
15000
15000
15000
15000
15000
15000
15000
14999.9
14999.9
14999.9
14999.9
14999.8
14999.7
14999.6
14999.5
14999.3
14999.1
14998.8
14998.5
14998
14997.4
14996.7
14995.8
14994.6
14993.1
14991.3
14989
14986.3
14982.9
14978.8
14973.8
14967.7
14960.5
14951.8
14941.5
14929.2
14914.8
14897.9
14878.1
14855.1
14828.5
14797.7
14762.4
14722
14676.1
14624
14565.2
14499.1
14425.1
14342.7
14251.3
14150.2
14038.9
13917
13784
13639.4
13482.8
13314.1
13132.9
12939.3
12733
12514.3
12283.2
12040.2
11785.5
11519.7
11243.5
10957.6
10662.8
10360.1
10050.5
9735.06
9415.04
9091.66
8766.18
8439.92
8114.19
7790.32
7469.6
7153.31
6842.68
6538.88
6243.01
5956.11
5679.09
5412.81
5158
4915.3
4685.23
4468.21
4264.55
4074.45
3898.01
3735.25
3586.09
3450.35
3327.8
3218.13
3120.97
3035.91
2962.5
2900.24
2848.63
2807.12
2775.18
2752.26
2737.81
2731.31
2732.21
2740.01
2754.2
2774.31
2799.86
2830.43
2865.57
2904.89
2948
2994.53
3044.12
3096.42
3151.12
3207.89
3266.41
3326.4
3387.54
3449.55
3512.15
3575.05
3637.98
3700.66
3762.81
3824.18
3884.5
3943.53
4001
4056.68
4110.35
4161.79
4210.78
4257.14
4300.69
4341.26
4378.71
4412.92
4443.77
4471.17
4495.06
4515.37
4532.08
4545.17
4554.64
4560.53
4562.87
4561.71
4557.14
4549.25
4538.13
4523.92
4506.74
4486.75
4464.09
4438.96
4411.51
4381.96
4350.49
4317.31
4282.64
4246.7
4209.7
4171.84
4133.32
4094.28
4054.8
4014.81
3973.93
3931.28
3884.94
3831.06
3762.1
3663.5
3507.25
3239.6
2757.55
1864.14
356.432
1338.3
15000
15000
15000
15000
15000
15000
15000
15000
15000
15000
15000
15000
15000
14999.9
14999.9
14999.9
14999.9
14999.8
14999.7
14999.6
14999.5
14999.3
14999.1
14998.9
14998.5
14998
14997.5
14996.7
14995.8
14994.6
14993.1
14991.3
14989.1
14986.3
14982.9
14978.8
14973.8
14967.8
14960.6
14951.9
14941.7
14929.5
14915.1
14898.2
14878.5
14855.6
14829
14798.3
14763.1
14722.9
14677
14625.1
14566.4
14500.5
14426.7
14344.5
14253.2
14152.3
14041.3
13919.7
13786.9
13642.5
13486.2
13317.8
13136.9
12943.5
12737.5
12519
12288.2
12045.3
11790.9
11525.3
11249.2
10963.4
10668.6
10365.9
10056.2
9740.72
9420.52
9096.89
8771.09
8444.43
8118.22
7793.79
7472.43
7155.42
6843.99
6539.3
6242.47
5954.52
5676.38
5408.91
5152.83
4908.81
4677.35
4458.88
4253.73
4062.09
3884.08
3719.72
3568.92
3431.52
3307.3
3195.94
3097.1
3010.36
2935.27
2871.34
2818.06
2774.91
2741.35
2716.84
2700.83
2692.8
2692.21
2698.55
2711.33
2730.07
2754.3
2783.6
2817.53
2855.69
2897.71
2943.2
2991.83
3043.24
3097.12
3153.14
3211
3270.4
3331.05
3392.66
3454.93
3517.6
3580.38
3643.01
3705.19
3766.68
3827.21
3886.52
3944.36
4000.48
4054.66
4106.66
4156.28
4203.32
4247.58
4288.91
4327.15
4362.16
4393.83
4422.06
4446.77
4467.9
4485.41
4499.28
4509.52
4516.13
4519.16
4518.67
4514.72
4507.41
4496.84
4483.14
4466.43
4446.87
4424.62
4399.85
4372.75
4343.51
4312.33
4279.44
4245.03
4209.34
4172.57
4134.95
4096.66
4057.86
4018.61
3978.85
3938.22
3895.84
3849.81
3796.32
3727.89
3630.07
3474.98
3208.98
2728.63
1835.19
353.573
1345.27
15000
15000
15000
15000
15000
15000
15000
15000
15000
15000
15000
15000
15000
14999.9
14999.9
14999.9
14999.9
14999.8
14999.7
14999.6
14999.5
14999.3
14999.1
14998.9
14998.5
14998
14997.5
14996.7
14995.8
14994.6
14993.2
14991.4
14989.1
14986.4
14983
14978.9
14973.9
14967.9
14960.7
14952.1
14941.9
14929.7
14915.4
14898.6
14878.9
14856
14829.5
14799
14763.8
14723.7
14678
14626.2
14567.7
14501.9
14428.3
14346.3
14255.2
14154.6
14043.8
13922.4
13789.9
13645.8
13489.8
13321.6
13141
12947.9
12742.2
12523.9
12293.4
12050.8
11796.5
11531.1
11255.2
10969.5
10674.8
10372.1
10062.3
9746.7
9426.33
9102.45
8776.34
8449.28
8122.61
7797.62
7475.63
7157.89
6845.65
6540.08
6242.27
5953.26
5673.99
5405.31
5147.96
4902.58
4669.71
4449.78
4243.1
4049.9
3870.28
3704.27
3551.79
3412.7
3286.76
3173.68
3073.09
2984.61
2907.78
2842.12
2787.13
2742.28
2707.03
2680.86
2663.23
2653.59
2651.44
2656.25
2667.55
2684.85
2707.69
2735.64
2768.29
2805.23
2846.07
2890.47
2938.06
2988.51
3041.51
3096.72
3153.86
3212.62
3272.72
3333.85
3395.76
3458.14
3520.73
3583.25
3645.44
3707.01
3767.71
3827.27
3885.45
3941.99
3996.66
4049.22
4099.46
4147.17
4192.16
4234.25
4273.28
4309.11
4341.62
4370.69
4396.24
4418.21
4436.55
4451.23
4462.25
4469.62
4473.38
4473.58
4470.28
4463.59
4453.6
4440.43
4424.22
4405.12
4383.3
4358.93
4332.2
4303.3
4272.44
4239.85
4205.72
4170.3
4133.8
4096.43
4058.39
4019.82
3980.82
3941.31
3900.94
3858.84
3813.13
3760.03
3692.14
3595.09
3441.18
3177.11
2700.08
1811.19
350.686
1347.65
15000
15000
15000
15000
15000
15000
15000
15000
15000
15000
15000
15000
15000
14999.9
14999.9
14999.9
14999.9
14999.8
14999.7
14999.6
14999.5
14999.3
14999.1
14998.9
14998.5
14998.1
14997.5
14996.7
14995.8
14994.6
14993.2
14991.4
14989.2
14986.4
14983.1
14979
14974
14968
14960.9
14952.3
14942.1
14930
14915.7
14898.9
14879.3
14856.5
14830.1
14799.6
14764.6
14724.6
14679
14627.3
14569
14503.4
14430
14348.2
14257.3
14156.9
14046.4
13925.2
13793
13649.2
13493.5
13325.6
13145.3
12952.4
12747
12529.1
12298.8
12056.4
11802.4
11537.2
11261.4
10975.8
10681.2
10378.5
10068.7
9752.99
9432.46
9108.36
8781.93
8454.5
8127.35
7801.82
7479.19
7160.74
6847.7
6541.23
6242.45
5952.38
5671.98
5402.08
5143.44
4896.7
4662.41
4440.99
4232.77
4037.98
3856.73
3689.05
3534.87
3394.04
3266.35
3151.5
3049.14
2958.87
2880.25
2812.82
2756.05
2709.45
2672.47
2644.58
2625.25
2613.96
2610.18
2613.4
2623.15
2638.94
2660.33
2686.87
2718.17
2753.81
2793.42
2836.65
2883.14
2932.57
2984.61
3038.95
3095.3
3153.36
3212.84
3273.45
3334.92
3396.97
3459.32
3521.7
3583.83
3645.44
3706.28
3766.07
3824.55
3881.48
3936.62
3989.72
4040.56
4088.94
4134.64
4177.49
4217.31
4253.96
4287.31
4317.24
4343.65
4366.47
4385.65
4401.17
4413
4421.15
4425.66
4426.58
4423.97
4417.92
4408.53
4395.93
4380.25
4361.64
4340.28
4316.33
4289.99
4261.46
4230.95
4198.67
4164.85
4129.72
4093.5
4056.4
4018.62
3980.31
3941.57
3902.32
3862.22
3820.4
3775.02
3722.33
3654.98
3558.71
3406.05
3144.13
2671.4
1794.3
349.086
1355.31
15000
15000
15000
15000
15000
15000
15000
15000
15000
15000
15000
15000
15000
14999.9
14999.9
14999.9
14999.9
14999.8
14999.7
14999.6
14999.5
14999.4
14999.1
14998.9
14998.5
14998.1
14997.5
14996.8
14995.8
14994.7
14993.2
14991.4
14989.2
14986.5
14983.1
14979.1
14974.1
14968.2
14961
14952.5
14942.3
14930.2
14916
14899.3
14879.8
14857
14830.7
14800.3
14765.4
14725.5
14680.1
14628.5
14570.4
14504.9
14431.7
14350.1
14259.5
14159.3
14049.1
13928.2
13796.2
13652.7
13497.3
13329.7
13149.7
12957.2
12752
12534.4
12304.4
12062.3
11808.5
11543.5
11267.9
10982.4
10687.9
10385.2
10075.4
9759.6
9438.92
9114.59
8787.87
8460.06
8132.47
7806.39
7483.14
7163.98
6850.14
6542.79
6243.04
5951.92
5670.38
5399.26
5139.33
4891.23
4655.51
4432.6
4222.84
4026.44
3843.55
3674.17
3518.27
3375.69
3246.22
3129.57
3025.4
2933.32
2852.88
2783.63
2725.05
2676.65
2637.88
2608.23
2587.16
2574.16
2568.69
2570.27
2578.41
2592.64
2612.5
2637.58
2667.45
2701.74
2740.05
2782.05
2827.38
2875.71
2926.73
2980.14
3035.64
3092.93
3151.73
3211.77
3272.75
3334.4
3396.45
3458.63
3520.66
3582.27
3643.2
3703.17
3761.93
3819.22
3874.79
3928.4
3979.83
4028.85
4075.25
4118.85
4159.46
4196.93
4231.12
4261.9
4289.18
4312.87
4332.91
4349.27
4361.93
4370.89
4376.17
4377.83
4375.93
4370.55
4361.79
4349.78
4334.66
4316.57
4295.69
4272.19
4246.26
4218.12
4187.98
4156.04
4122.55
4087.73
4051.8
4014.98
3977.48
3939.45
3900.98
3862
3822.17
3780.66
3735.62
3683.34
3616.54
3521.09
3369.76
3110.09
2641.07
1766.24
347.167
1353.76
15000
15000
15000
15000
15000
15000
15000
15000
15000
15000
15000
15000
15000
14999.9
14999.9
14999.9
14999.9
14999.8
14999.7
14999.6
14999.5
14999.4
14999.1
14998.9
14998.5
14998.1
14997.5
14996.8
14995.8
14994.7
14993.3
14991.5
14989.3
14986.5
14983.2
14979.2
14974.2
14968.3
14961.2
14952.7
14942.5
14930.5
14916.3
14899.7
14880.2
14857.5
14831.3
14801
14766.2
14726.5
14681.1
14629.8
14571.8
14506.6
14433.5
14352.1
14261.8
14161.9
14051.9
13931.2
13799.5
13656.3
13501.2
13334
13154.3
12962.1
12757.2
12539.9
12310.2
12068.3
11814.8
11550
11274.6
10989.2
10694.8
10392.2
10082.4
9766.51
9445.69
9121.15
8794.15
8465.98
8137.94
7811.34
7487.48
7167.62
6852.99
6544.77
6244.06
5951.9
5669.23
5396.91
5135.69
4886.24
4649.09
4424.69
4213.38
4015.38
3830.83
3659.76
3502.12
3357.78
3226.51
3108.05
3002.05
2908.13
2825.85
2754.74
2694.33
2644.08
2603.5
2572.05
2549.2
2534.43
2527.24
2527.12
2533.6
2546.21
2564.5
2588.05
2616.45
2649.31
2686.27
2726.97
2771.07
2818.25
2868.2
2920.61
2975.19
3031.65
3089.72
3149.1
3209.54
3270.74
3332.44
3394.36
3456.23
3517.79
3578.75
3638.86
3697.85
3755.46
3811.44
3865.53
3917.51
3967.15
4014.23
4058.56
4099.94
4138.22
4173.25
4204.89
4233.03
4257.6
4278.51
4295.72
4309.22
4319
4325.08
4327.49
4326.32
4321.63
4313.53
4302.13
4287.59
4270.04
4249.66
4226.63
4201.15
4173.42
4143.66
4112.09
4078.94
4044.45
4008.83
3972.32
3935.11
3897.36
3859.17
3820.47
3780.94
3739.73
3695.03
3643.17
3576.95
3482.39