<?xml version="1.0"?>
<VTKFile type="PolyData" version="0.1" byte_order="LittleEndian">
  <PolyData>
    <Piece NumberOfPoints="50000" NumberOfVerts="50000" NumberOfLines="0" NumberOfStrips="0" NumberOfPolys="0">
      <Points>
        <DataArray type="Float32" NumberOfComponents="3" format="ascii">
0.510855 0.0102126 0
-0.486334 0.00322895 0
0.495229 -0.00402785 0
0.517061 -0.0033921 0
-0.423361 0.0075666 0
-0.35582 0.00229313 0
0.169954 -0.0337659 0
-0.437199 -0.000461473 0
0.149819 -0.0264268 0
-0.0351604 0.0110304 0
0.388535 -0.0167702 0
0.49303 0.00923828 0
-0.285325 0.00854061 0
-0.20302 -0.0318201 0
-0.531332 0.00246617 0
0.400668 0.0150441 0
-0.0747551 -0.0032417 0
0.512928 0.00142515 0
0.194194 0.00125065 0
-0.487042 0.00429671 0
-0.510164 0.00662891 0
0.444601 0.0080016 0
-0.503701 0.00281536 0
0.499923 -0.000703753 0
0.318502 -0.0168759 0
0.372647 0.015937 0
-0.499731 -0.0101333 0
0.513449 -0.00503173 0
-0.358094 0.0296391 0
-0.52569 0.0112045 0
-0.396029 0.0149994 0
-0.368427 -0.0216392 0
0.508519 0.000337439 0
0.512046 -0.00201322 0
0.0971253 0.00602951 0
0.520602 -0.00277824 0
0.157754 0.00135071 0
-0.521201 0.00283034 0
-0.488194 -0.00716276 0
-0.542494 -0.00364922 0
0.375649 0.016245 0
0.39697 0.00728317 0
-0.497862 -0.00341612 0
0.505294 0.000218467 0
0.523816 0.00101661 0
-0.51276 0.0107797 0
0.49783 0.00565135 0
0.255261 -0.0197386 0
0.491585 -0.000229358 0
0.503264 -0.000444944 0
0.211011 0.02703 0
-0.5026 -0.00171924 0
-0.349849 0.0116547 0
0.496677 0.00308407 0
-0.4949 0.00276775 0
-0.527627 0.0029599 0
0.511523 -0.00228864 0
0.206426 0.0143608 0
0.382688 0.00912481 0
0.528151 -0.00691466 0
0.431424 0.00554705 0
0.516941 0.00274964 0
0.113708 -0.0417507 0
0.528167 -0.00288228 0
-0.170992 0.0212335 0
-0.493344 0.00151869 0
0.501959 -0.00176906 0
0.515815 -0.0014172 0
0.533601 0.00458769 0
0.36925 0.000699497 0
-0.499308 0.00386387 0
0.501171 0.00419741 0
0.273428 0.00100038 0
0.279865 0.00821042 0
0.238532 0.00609321 0
-0.506456 -0.00348926 0
0.438534 0.0154545 0
-0.481041 0.00523334 0
0.386655 0.00827773 0
-0.526501 0.00180671 0
-0.266082 -0.0435225 0
-0.515716 0.00535068 0
0.473777 0.00595838 0
-0.501219 0.000575167 0
0.5275 -0.00662428 0
-0.502678 0.00397375 0
0.528452 -0.00650102 0
-0.226638 -0.0112295 0
-0.219358 0.0289628 0
-0.506798 -0.00932286 0
0.496606 0.00794591 0
-0.495772 -0.00104146 0
0.499296 -0.00280964 0
-0.342303 0.0245897 0
-0.0521942 -0.0282132 0
-0.446253 0.00642477 0
0.498157 0.0105521 0
-0.511253 0.00389222 0
-0.539254 0.00909841 0
-0.534987 -0.00155869 0
-0.448751 -0.00988754 0
-0.497602 -0.00741037 0
0.531999 -0.00131154 0
-0.216242 -0.0265699 0
0.535766 -0.00114063 0
0.438796 0.015676 0
0.322367 0.00804618 0
0.0254853 0.00966461 0
0.492538 0.00530154 0
-0.504275 -0.00611797 0
-0.380851 0.0246663 0
-0.511733 0.00377934 0
-0.437019 0.0130911 0
380.449 550.34 0
0.335859 0.00891596 0
-0.504401 0.00428259 0
-0.523012 0.00537183 0
9.78015 13.379 0
-0.507938 0.00185813 0
-0.0264491 -0.0114112 0
0.513641 -0.00225893 0
-0.48993 -0.00503912 0
0.346542 -0.00485353 0
-0.468765 0.00911923 0
0.504251 -0.0013109 0
0.490061 -0.00164085 0
0.160961 0.0299674 0
0.518154 0.00517506 0
-0.454713 -0.00901014 0
0.390984 -0.00155808 0
0.52095 -0.0044601 0
0.516829 -0.000958818 0
-0.537184 0.000692874 0
-0.44823 0.00484823 0
0.529189 -0.00272667 0
0.502955 -0.00174402 0
0.485122 -0.00396516 0
-0.0814429 0.00363934 0
0.405755 -0.0183252 0
0.394695 -0.0154573 0
0.405583 -0.0186137 0
0.481369 0.0117956 0
0.519822 -0.00473162 0
-0.12153 -0.018038 0
-0.520679 0.00825972 0
0.345427 -0.0288904 0
-0.333963 0.0250589 0
-0.513697 0.00225262 0
-0.3679 -0.0255107 0
-0.515285 0.00439638 0
0.392435 0.00897914 0
0.499568 0.00245336 0
-0.15705 -0.0152957 0
0.406973 -0.0134354 0
0.404727 0.0102096 0
0.495307 0.00449804 0
0.339278 -0.0126606 0
-0.504882 0.00324762 0
-0.218444 -0.00791142 0
0.518332 -0.000918741 0
0.346294 -0.00248295 0
-0.458162 -0.00405454 0
-0.496065 0.00291049 0
-0.515744 0.00299563 0
-0.133974 0.0123058 0
0.399369 -0.00841377 0
0.451431 -0.00749069 0
0.457329 0.00426161 0
0.381955 0.00959225 0
-0.212524 0.000382504 0
0.533918 -0.00664942 0
-0.494496 0.00364398 0
-0.117958 -0.00783175 0
0.515883 0.0050524 0
-0.0950578 -0.00474608 0
-0.399768 0.0195729 0
-0.49583 0.00285471 0
-0.302292 -0.0143269 0
-0.502601 -0.00325114 0
-0.504761 -0.00864578 0
0.494673 -0.000556844 0
-0.510601 0.00782777 0
-0.502864 0.00655374 0
0.510622 0.00632259 0
0.498275 -0.00160339 0
0.385478 -0.0223458 0
0.535056 -0.00478912 0
0.529508 0.0001034 0
0.513299 -0.00513533 0
0.0570526 0.0371523 0
0.522076 -0.00509404 0
0.422904 -0.0119826 0
-0.341512 -0.0236501 0
0.470758 0.00771445 0
-0.467484 0.00773054 0
0.49454 0.00175848 0
-0.416704 0.0145283 0
-0.443861 0.00637829 0
-0.497989 0.00455687 0
0.500701 0.0058106 0
-0.333151 0.0236705 0
0.528174 0.00299938 0
0.458127 -0.00736202 0
-0.105191 -0.00937906 0
0.534804 -0.00677813 0
-0.490634 -0.010466 0
0.06939 0.0604483 0
0.211814 -0.00884565 0
-0.44466 0.0132215 0
-0.313635 -0.0132765 0
0.489717 0.00028078 0
-0.21913 -0.0270113 0
0.461606 -0.00507979 0
-0.429762 0.0136205 0
-0.295021 -0.0204426 0
-0.515671 0.00736432 0
-0.5088 0.00943747 0
0.5076 -0.000827169 0
-0.523225 -0.00214518 0
-0.0620759 0.0262883 0
-0.402699 0.0145225 0
-0.52206 0.00426429 0
-0.484981 -0.00849298 0
0.530348 -0.004202 0
0.187795 0.0309562 0
-0.496115 0.00351133 0
0.533254 0.000992296 0
0.511391 -0.00152171 0
-0.441239 0.0120251 0
-0.519796 -0.0011078 0
-0.511518 -0.0052158 0
0.497395 0.00493398 0
0.259404 0.0295798 0
-0.0795655 0.0186644 0
-0.52952 0.00526997 0
-0.456101 0.00711226 0
0.391466 -0.0226893 0
-0.401676 -0.00604998 0
-0.506117 0.00386342 0
0.309835 -0.00414862 0
0.523428 -0.000500035 0
-0.46455 -0.00897216 0
-0.511847 0.00391947 0
-0.296707 -0.0182072 0
0.255502 0.00826098 0
0.457136 0.00487268 0
-0.483517 0.00856167 0
0.511838 -0.00151715 0
0.527192 0.00292988 0
0.302285 0.0155195 0
0.315266 0.00513484 0
-0.481439 0.00604941 0
0.49464 -0.0041801 0
-0.228339 -0.0123496 0
-0.465826 0.00995437 0
0.495291 -0.000813424 0
-0.451512 0.00969747 0
0.438634 0.0109914 0
0.190004 0.0293289 0
0.273977 -9.90278e-05 0
0.526882 0.000703181 0
-0.48126 0.00583005 0
0.0959517 -0.0109031 0
0.0477666 -0.0181754 0
-0.343516 0.00395552 0
-0.505277 0.000984164 0
-0.497712 0.00333835 0
-0.494089 -0.00213763 0
0.507316 -0.00176881 0
0.503516 -0.00147713 0
0.518633 -0.00166928 0
-0.509754 -0.0039988 0
0.332734 0.00347577 0
0.0272328 0.0155177 0
-0.532515 0.00602146 0
-0.517832 0.00253386 0
0.492728 -0.000962287 0
-0.494932 0.00344459 0
0.4895 0.00782106 0
-0.502026 -0.0022155 0
-0.487044 -0.000558839 0
-0.226027 -0.0295225 0
-0.510059 0.0027549 0
0.48116 -0.00323234 0
-0.433769 0.0132255 0
-0.488564 -0.00447247 0
-0.194289 0.024853 0
-0.508497 0.00378485 0
-0.516643 0.00445579 0
0.433934 -0.00437437 0
-0.18177 0.00821048 0
0.506625 -0.00166025 0
0.517758 -0.00416048 0
0.330206 0.0172091 0
0.52609 0.00375155 0
0.499166 0.00739829 0
0.524091 0.0049015 0
-0.350096 0.029189 0
-0.477721 0.00223801 0
-0.53125 0.000799721 0
0.537386 0.000697269 0
-0.0723703 0.00895633 0
0.504969 -0.00270832 0
0.492726 0.00370433 0
0.520023 -0.00141528 0
0.0887949 0.0150624 0
-0.268542 0.0313418 0
0.437984 0.00637856 0
-0.0619177 0.000101627 0
-0.249909 0.0114551 0
-0.418035 0.0142516 0
0.506328 0.00795131 0
-0.370217 0.018041 0
0.468883 -0.00725528 0
0.386335 -0.00646262 0
-0.529383 0.0075967 0
0.412318 -0.019092 0
0.531783 -0.00706856 0
0.475538 -0.00427832 0
0.508027 0.0089125 0
-0.51648 0.00644673 0
-0.11373 0.0186801 0
0.518687 0.00217898 0
0.516187 -0.00166341 0
0.238208 0.0310217 0
-0.492761 -0.000922059 0
-0.483629 0.00600572 0
0.531451 0.000164461 0
-0.494485 -0.00421392 0
0.512373 0.00268149 0
0.516105 -0.00355901 0
0.247189 -0.030139 0
0.494565 0.00401118 0
-0.507304 0.00384418 0
-0.434239 -0.00115742 0
-0.29178 -0.00360106 0
0.0405353 -0.010238 0
0.0613381 -0.0376972 0
-0.46539 0.00390455 0
0.229933 -0.0334261 0
-0.0547915 0.0511104 0
-0.523716 0.00736501 0
-0.374623 0.0168904 0
-0.511322 0.00529105 0
-0.212401 -0.0176102 0
0.515705 0.00823534 0
-0.363827 0.0190217 0
-0.517432 -0.000400108 0
-84.6676 350.203 0
0.514631 -0.00711966 0
0.513358 -0.00186082 0
-0.422097 0.0175626 0
0.498968 0.00330105 0
0.473466 -0.00171942 0
-754.323 -1348.99 0
0.157253 0.0181539 0
-0.512174 0.00438147 0
-0.426203 -0.00349524 0
0.509809 0.00404135 0
5.31526 -10.9511 0
0.482592 0.00589929 0
-0.501211 -0.00792575 0
-0.320414 -3.57869e-05 0
-0.509008 -0.00447188 0
-0.519013 0.00820815 0
0.50595 -0.00171511 0
-0.527316 -0.00215401 0
-0.457265 0.011261 0
0.397178 0.0155132 0
-0.496892 -0.000254977 0
-0.414354 0.0175807 0
-0.459529 0.0100479 0
0.511292 0.00492054 0
0.460979 -0.0092545 0
-0.306293 0.0237748 0
0.525506 -0.00306691 0
-0.512379 -0.00746135 0
-0.477 -0.00494804 0
-0.517949 0.00128949 0
0.0444351 -0.0399387 0
-0.49862 -0.00707251 0
0.504065 0.00495367 0
-0.508401 0.00433604 0
-0.505513 0.00221075 0
-0.125041 0.0188075 0
0.330239 0.0169717 0
-0.165852 0.0458771 0
0.108467 0.0257992 0
-0.512872 0.00464448 0
-0.0931921 0.00422958 0
-0.513755 -0.00152842 0
-0.516465 0.00665032 0
0.492764 -0.00781342 0
0.434299 0.0115572 0
-0.483368 0.00780103 0
0.45779 0.00575393 0
0.454948 0.00132996 0
-0.492885 0.00356084 0
-0.272456 -0.00931867 0
0.359981 -0.0222241 0
-0.493356 0.000764486 0
0.435905 -0.0116699 0
0.199318 -0.00645105 0
-0.507343 -0.0015671 0
0.473501 -0.00116325 0
0.498118 -0.00333248 0
0.505685 -0.00638265 0
0.51523 -0.00237042 0
0.524052 -0.000354232 0
0.496455 0.0083177 0
-0.5105 0.00320918 0
0.366592 0.0119016 0
-0.422061 -0.00670171 0
0.240818 0.0335598 0
-0.480667 0.00315499 0
-0.172131 -0.00741414 0
-0.398889 0.0145813 0
0.14507 -0.0181156 0
-0.521143 0.0046548 0
0.497251 -0.00174312 0
-0.14093 0.0371802 0
0.177986 0.019393 0
-0.528167 0.00399088 0
0.500788 0.00198851 0
0.51633 -0.00124931 0
0.493401 0.0105668 0
0.527239 -0.00630725 0
-0.503574 0.00382976 0
-0.519499 0.0028981 0
0.512658 -0.00230217 0
-0.358708 0.0206273 0
[...]
      <PointData Scalars="T">
        <DataArray type="Float32" Name="T" format="ascii" NumberOfComponents="1">
318.961
472.531
317.641
317.641
472.531
472.531
317.641
487.703
317.641
472.531
317.641
318.961
472.531
487.703
472.531
318.961
487.703
314.219
308.465
472.531
472.531
318.961
472.531
317.641
317.641
318.961
487.703
317.641
472.531
472.531
472.531
487.703
320.766
317.641
318.961
317.641
309.561
472.531
487.703
487.703
318.961
318.961
487.703
329.08
303.626
472.531
318.961
317.641
317.641
317.641
318.961
487.703
472.531
318.961
472.531
472.531
317.641
318.961
318.961
317.641
318.961
318.961
317.641
317.641
472.531
1095.69
317.641
317.641
318.961
308.73
472.531
318.961
304.417
318.961
318.961
487.703
318.961
472.531
318.961
970.665
487.703
472.531
318.961
956.855
317.641
472.531
317.641
487.703
472.531
487.703
318.961
487.703
317.641
472.531
487.703
472.531
318.961
472.531
472.531
487.703
487.703
487.703
317.641
487.703
317.641
318.961
318.961
318.961
318.961
487.703
472.531
472.531
472.531
318.961
318.961
472.531
472.531
318.961
981.214
487.703
317.641
487.703
317.641
472.531
317.641
317.641
318.961
318.961
487.703
317.641
317.641
317.641
1161.09
472.531
317.641
317.641
317.641
472.531
317.641
317.641
317.641
318.961
317.641
487.703
472.531
317.641
472.531
472.531
487.703
472.531
318.961
318.961
487.703
317.641
318.961
318.961
317.641
472.531
487.703
317.641
317.641
487.703
472.531
472.531
472.531
317.641
317.641
318.961
318.961
987.119
317.641
472.531
487.703
318.961
487.703
472.531
472.531
487.703
487.703
487.703
317.641
472.531
472.531
318.961
317.641
317.641
317.641
338.246
317.641
318.961
317.641
317.641
487.703
318.961
472.531
335.283
472.531
472.531
472.531
318.961
472.531
318.961
317.641
487.703
317.641
487.703
318.961
317.641
472.531
487.703
326.177
487.703
317.641
472.531
487.703
472.531
472.531
317.641
487.703
472.531
472.531
472.531
487.703
317.641
318.961
472.531
304.325
317.641
472.531
487.703
487.703
318.961
318.961
472.531
472.531
472.531
317.641
487.703
472.531
317.641
317.641
487.703
472.531
487.703
318.961
318.961
472.531
317.641
318.961
318.961
318.961
472.531
317.641
487.703
472.531
317.641
472.531
318.961
318.961
317.641
308.43
472.531
317.641
317.641
472.531
977.577
472.531
487.703
317.641
317.641
317.641
487.703
318.961
318.961
472.531
472.531
317.641
472.531
318.961
487.703
487.703
487.703
472.531
317.641
472.531
487.703
472.531
472.531
472.531
317.641
472.531
317.641
317.641
318.961
318.961
318.961
318.961
472.531
472.531
1016.53
308.73
472.531
317.641
318.961
317.641
318.961
472.531
318.961
950.022
472.531
472.531
318.961
472.531
317.641
317.641
472.531
317.641
317.641
317.641
318.961
472.531
472.531
318.961
317.641
318.961
487.703
472.531
333.334
487.703
318.961
317.641
317.641
318.961
472.531
487.703
487.703
317.641
317.641
472.531
317.641
472.531
472.531
472.531
472.531
487.703
318.961
472.531
487.703
472.531
317.641
317.641
472.531
318.961
317.641
487.703
318.961
472.531
487.703
318.961
317.641
318.961
487.703
487.703
487.703
472.531
317.641
487.703
472.531
318.961
487.703
472.531
472.531
318.961
317.641
472.531
317.641
487.703
487.703
1093.06
317.641
487.703
318.961
472.531
472.531
472.531
318.961
472.531
318.961
472.531
472.531
487.703
472.531
317.641
318.961
472.531
318.961
308.71
472.531
487.703
317.641
976.295
317.641
317.641
487.703
317.641
317.641
317.641
317.641
317.641
318.961
472.531
318.961
487.703
318.961
472.531
487.703
472.531
317.641
472.531
317.641
472.531
318.961
472.531
318.961
317.641
318.961
317.641
472.531
472.531
317.641
472.531
318.961
472.531
318.961
1116.26
487.703
472.531
472.531
318.961
312.2
472.531
317.641
910.462
487.703
487.703
472.531
487.703
318.961
317.641
487.703
318.961
487.703
487.703
317.641
317.641
487.703
472.531
970.398
487.703
314.657
487.703
317.641
472.531
487.703
317.641
318.961
487.703
487.703
472.531
472.531
318.961
988.776
317.641
317.641
318.961
472.531
472.531
472.531
317.641
318.961
487.703
487.703
487.703
472.531
309.561
318.961
317.641
306.934
472.531
318.961
318.961
304.192
472.531
318.961
317.641
487.703
317.641
472.531
472.531
472.531
487.703
487.703
487.703
487.703
487.703
317.641
317.641
317.641
318.961
317.641
318.961
318.961
487.703
318.961
472.531
317.641
318.961
472.531
318.961
472.531
975.828
472.531
487.703
318.961
317.641
318.961
317.641
317.641
317.641
472.531
318.961
318.961
913.081
318.961
930.752
472.531
487.703
317.641
317.641
472.531
472.531
487.703
487.703
487.703
318.961
318.961
318.961
318.961
487.703
472.531
318.961
472.531
326.177
318.961
487.703
472.531
317.641
472.531
318.961
318.961
487.703
318.961
487.703
317.641
1041.57
472.531
308.523
317.641
487.703
487.703
1032.06
472.531
472.531
318.961
317.641
317.641
311.071
318.961
487.703
972.009
487.703
487.703
472.531
318.961
317.641
472.531
318.961
487.703
304.037
318.961
317.641
472.531
318.961
487.703
1111.77
318.961
317.641
487.703
318.961
472.531
317.641
317.641
318.961
317.641
487.703
487.703
472.531
1139.13
318.961
487.703
317.641
487.703
487.703
318.961
317.641
487.703
487.703
472.531
472.531
317.641
317.641
472.531
487.703
487.703
318.961
317.641
472.531
472.531
317.641
317.641
318.961
318.961
472.531
487.703
487.703
487.703
487.703
318.961
472.531
318.961
318.961
487.703
472.531
317.641
317.641
487.703
472.531
317.641
487.703
487.703
472.531
317.641
487.703
472.531
318.961
472.531
472.531
317.641
318.961
472.531
318.961
317.641
472.531
318.961
317.641
472.531
472.531
317.641
317.641
317.641
318.961
318.961
487.703
487.703
472.531
472.531
318.961
472.531
487.703
318.582
318.961
472.531
472.531
472.531
317.641
318.961
318.961
318.961
472.531
317.641
317.641
1035.21
472.531
318.961
317.641
318.961
318.961
318.961
472.531
318.961
318.961
317.641
472.531
318.961
472.531
317.641
318.961
317.641
318.961
317.641
472.531
318.961
472.531
318.961
472.531
472.531
472.531
317.641
487.703
318.961
472.531
317.641
318.961
487.703
317.641
1040.23
487.703
487.703
472.531
472.531
472.531
317.641
317.641
317.641
317.641
317.641
941.421
318.961
472.531
487.703
317.641
317.641
472.531
314.657
472.531
318.961
472.531
472.531
472.531
487.703
487.703
317.877
472.531
318.961
472.531
487.703
472.531
487.703
487.703
317.641
318.961
317.641
472.531
487.703
472.531
472.531
487.703
472.531
487.703
318.961
472.531
487.703
317.641
317.641
317.641
472.531
472.531
487.703
318.961
487.703
309.134
472.531
487.703
487.703
318.961
317.641
318.961
334.209
317.641
472.531
472.531
317.641
472.531
318.961
472.531
318.961
472.531
487.703
318.961
472.531
327.381
472.531
472.531
317.641
308.523
487.703
318.961
317.641
319.734
318.961
472.531
487.703
487.703
318.961
472.531
333.385
318.961
317.641
317.641
487.703
472.531
341.724
472.531
472.531
317.641
317.641
318.961
317.641
472.531
487.703
318.961
472.531
318.961
318.961
472.531
472.531
318.961
1131.39
317.641
317.641
472.531
472.531
317.641
317.759
472.531
487.703
487.703
318.961
323.379
964.611
472.531
472.531
961.255
487.703
317.641
472.531
317.641
472.531
317.641
317.641
1003.87
317.641
472.531
318.961
317.641
472.531
487.703
318.961
317.641
318.961
318.961
318.961
318.961
472.531
318.961
317.641
487.703
317.641
318.961
472.531
317.641
317.641
318.961
472.531
472.531
487.703
317.641
487.703
317.641
487.703
472.531
472.531
318.961
487.703
487.703
487.703
317.641
1022.64
472.531
317.641
318.961
487.703
487.703
317.641
472.531
317.641
317.641
487.703
318.961
487.703
318.961
317.641
318.961
317.641
318.961
318.961
472.531
318.961
317.641
317.641
472.531
317.641
487.703
472.531
487.703
317.641
318.961
472.531
487.703
472.531
317.641
472.531
472.531
317.641
317.641
318.961
318.961
472.531
472.531
317.641
472.531
318.961
472.531
487.703
325.635
487.703
317.641
472.531
487.703
472.531
472.531
472.531
487.703
487.703
472.531
472.531
318.961
472.531
317.641
317.641
317.641
317.641
318.961
472.531
317.641
472.531
318.961
472.531
318.961
318.961
487.703
318.961
472.531
317.641
318.961
317.641
487.703
317.641
472.531
313.93
487.703
487.703
318.961
487.703
472.531
472.531
487.703
317.641
318.961
318.961
318.961
487.703
317.641
487.703
317.641
337.944
318.961
318.961
318.961
317.641
317.641
487.703
318.961
318.961
487.703
472.531
317.641
472.531
304.192
472.531
487.703
472.531
979.35
487.703
472.531
318.961
487.703
318.961
472.531
317.641
472.531
318.961
472.531
472.531
318.961
318.961
472.531
317.641
318.961
317.641
325.356
487.703
472.531
487.703
1151.32
317.641
472.531
317.641
472.531
472.531
317.641
317.641
472.531
318.961
317.641
317.641
317.641
472.531
317.641
318.961
472.531
472.531
472.531
487.703
472.531
317.641
472.531
317.641
487.703
318.961
317.641
318.961
472.531
487.703
487.703
472.531
317.641
318.961
487.703
317.641
306.224
487.703
487.703
317.641
472.531
314.219
317.641
318.961
487.703
472.531
472.531
472.531
318.961
1062.9
318.961
472.531
472.531
317.641
318.961
318.961
317.641
318.961
487.703
1041.95
487.703
472.531
317.641
318.961
318.961
318.961
318.961
318.961
487.703
472.531
472.531
472.531
487.703
472.531
472.531
317.641
317.641
317.641
317.641
317.641
472.531
317.641
472.531
318.582
487.703
472.531
318.961
472.531
1137.11
317.641
1113.26
317.641
317.641
317.641
317.641
318.961
318.961
317.641
318.961
487.703
304.192
472.531
318.961
318.961
317.641
487.703
317.641
487.703
318.961
318.961
318.961
318.961
472.531
317.641
472.531
318.961
317.641
317.641
1093.93
1090.38
1091.85
317.641
317.641
487.703
318.961
472.531
318.961
317.641
487.703
472.531
881.181
317.641
318.961
472.531
317.641
472.531
318.961
472.531
472.531
973.286
472.531
317.641
317.641
487.703
472.531
472.531
472.531
317.641
487.703
318.961
472.531
318.961
318.961
472.531
472.531
318.961
472.531
317.641
317.641
317.641
472.531
325.995
317.641
487.703
472.531
317.641
472.531
317.641
472.531
472.531
317.641
487.703
487.703
317.641
317.641
318.961
317.641
318.961
487.703
318.961
318.961
472.531
472.531
317.641
472.531
318.961
303.626
979.35
472.531
318.961
1092.46
925.612
306.367
317.641
487.703
472.531
317.641
472.531
472.531
487.703
487.703
472.531
317.641
317.641
472.531
472.531
317.641
487.703
317.641
318.961
318.961
472.531
472.531
317.641
925.612
318.961
472.531
318.961
317.641
472.531
317.641
317.641
487.703
472.531
487.703
487.703
472.531
472.531
472.531
472.531
318.961
317.641
317.641
472.531
317.641
472.531
472.531
317.641
472.531
472.531
318.961
472.531
487.703
317.641
487.703
487.703
318.961
472.531
318.961
318.961
317.641
317.641
472.531
318.961
323.842
472.531
472.531
318.961
472.531
472.531
317.641
317.641
317.641
487.703
317.641
472.531
333.385
317.641
472.531
472.531
472.531
317.641
317.641
472.531
472.531
472.531
487.703
318.961
487.703
317.641
487.703
487.703
317.641
318.961
317.641
487.703
318.961
317.641
318.961
995.314
317.641
1016.56
487.703
472.531
472.531
487.703
487.703
487.703
318.961
318.961
487.703
472.531
472.531
317.641
472.531
472.531
472.531
487.703
487.703
317.641
317.641
318.961
472.531
318.961
318.961
317.641
487.703
317.641
318.961
318.961
314.789
318.961
472.531
1032.22
1111.61
472.531
472.531
317.641
487.703
487.703
318.961
472.531
487.703
472.531
972.103
472.531
472.531
487.703
317.641
487.703
487.703
472.531
487.703
472.531
317.641
487.703
472.531
317.641
317.641
317.641
487.703
487.703
472.531
318.961
472.531
487.703
340.313
472.531
472.531
472.531
318.961
472.531
318.961
318.961
317.641
487.703
317.641
324.466
487.703
1062.9
317.641
318.961
487.703
472.531
472.531
317.641
472.531
487.703
472.531
318.961
318.961
317.641
318.961
487.703
472.531
472.531
317.641
318.961
472.531
318.961
318.961
487.703
487.703
487.703
318.961
318.961
318.961
472.531
318.961
1045.72
318.961
472.531
472.531
472.531
318.961
317.641
317.641
317.641
487.703
317.641
317.641
988.62
472.531
318.961
318.961
317.641
472.531
317.641
472.531
317.641
318.961
317.641
309.51
487.703
472.531
487.703
318.961
317.641
317.641
317.641
472.531
318.961
472.531
318.961
317.641
318.961
487.703
317.641
472.531
318.961
318.961
317.641
487.703
317.641
317.641
317.641
317.641
318.961
1041.95
318.961
317.641
472.531
487.703
487.703
926.665
472.531
472.531
930.995
472.531
317.641
317.641
487.703
318.961
472.531
472.531
472.531
317.641
487.703
487.703
318.961
317.641
318.961
318.961
318.961
472.531
318.961
318.961
317.641
318.961
472.531
329.883
1009.7
487.703
487.703
317.641
487.703
472.531
472.531
472.531
472.531
472.531
1030.22
472.531
318.961
318.961
317.641
472.531
317.641
472.531
317.641
318.961
472.531
304.941
317.641
318.961
318.961
317.641
980.808
317.641
311.985
472.531
318.961
472.531
318.961
472.531
317.641
317.641
472.531
472.531
487.703
472.531
487.703
472.531
317.641
317.641
317.641
487.703
318.961
472.531
317.641
487.703
318.961
472.531
472.531
487.703
472.531
317.641
317.641
487.703
317.641
318.961
487.703
472.531
317.641
318.961
472.531
318.961
318.961
317.641
317.641
317.641
487.703
472.531
487.703
487.703
318.961
317.641
318.961
308.944
317.641
472.531
1080.21
487.703
317.641
311.314
317.641
317.641
472.531
317.641
318.961
318.961
318.961
317.641
318.961
472.531
472.531
472.531
318.961
472.531
472.531
317.641
307.764
317.641
303.621
472.531
318.961
472.531
318.961
318.961
472.531
317.641
487.703
487.703
487.703
317.641
487.703
487.703
472.531
487.703
487.703
472.531
487.703
487.703
998.8
317.641
472.531
472.531
318.961
318.961
317.641
317.641
318.961
472.531
472.531
318.961
487.703
487.703
318.961
472.531
487.703
318.961
318.961
317.641
472.531
472.531
317.641
472.531
472.531
317.641
487.703
308.014
317.641
317.641
317.641
472.531
472.531
472.531
317.641
472.531
472.531
472.531
472.531
487.703
472.531
318.961
487.703
472.531
472.531
318.961
472.531
317.641
472.531
1005.4
318.961
472.531
487.703
317.641
317.641
487.703
487.703
1057.03
317.641
960.139
472.531
925.612
487.703
472.531
487.703
487.703
318.961
317.641
487.703
472.531
317.641
318.961
317.641
487.703
317.641
317.641
318.961
318.961
472.531
487.703
472.531
472.531
318.961
472.531
318.961
472.531
487.703
487.703
317.641
304.68
487.703
472.531
317.641
977.513
318.961
317.641
318.961
317.641
317.641
318.961
472.531
487.703
487.703
472.531
317.641
317.641
487.703
317.641
962.408
472.531
472.531
487.703
472.531
318.961
317.641
472.531
487.703
318.961
318.961
472.531
317.641
472.531
317.641
317.641
317.641
472.531
318.961
317.641
317.641
318.961
487.703
304.538
487.703
487.703
317.641
317.641
487.703
472.531
318.961
317.641
317.641
487.703
487.703
472.531
318.961
318.961
487.703
318.961
317.641
1031.9
317.641
318.961
472.531
487.703
487.703
472.531
472.531
472.531
472.531
472.531
318.961
487.703
308.43
487.703
487.703
318.961
472.531
472.531
472.531
487.703
317.641
472.531
487.703
318.961
472.531
487.703
472.531
318.961
317.641
318.961
317.641
487.703
487.703
472.531
487.703
472.531
472.531
487.703
472.531
472.531
317.641
318.961
318.961
342.324
319.932
487.703
487.703
318.961
318.961
487.703
487.703
472.531
317.641
472.531
472.531
472.531
317.641
472.531
317.641
318.961
314.979
317.641
472.531
318.961
472.531
472.531
487.703
318.961
472.531
318.961
310.829
318.961
317.641
472.531
487.703
317.641
317.641
308.944
318.961
318.961
317.641
487.703
317.641
317.641
472.531
1079.99
472.531
317.641
317.641
317.641
472.531
472.531
472.531
318.961
472.531
318.961
910.462
318.961
317.641
317.641
317.641
472.531
318.961
487.703
318.961
317.641
318.961
472.531
487.703
487.703
472.531
487.703
487.703
318.961
472.531
487.703
317.641
317.641
318.961
472.531
472.531
487.703
487.703
318.961
472.531
487.703
487.703
318.961
472.531
1062.9
317.641
472.531
318.961
487.703
317.641
472.531
487.703
318.961
472.531
317.641
487.703
472.531
317.641
318.961
487.703
472.531
472.531
317.641
472.531
487.703
317.641
487.703
318.961
318.961
1147.45
318.961
317.641
317.641
317.641
331.596
487.703
317.641
318.961
1002.84
318.961
472.531
487.703
487.703
472.531
487.703
317.641
487.703
318.961
318.961
318.961
317.641
318.961
317.641
317.641
318.961
487.703
318.961
318.961
487.703
317.641
317.641
318.961
307.306
487.703
317.641
317.641
487.703
318.961
487.703
487.703
317.641
472.531
472.531
317.641
472.531
318.961
327.381
318.961
317.641
317.641
317.641
317.641
317.641
312.59
472.531
487.703
1105.81
318.961
317.641
472.531
317.641
317.641
487.703
317.641
318.961
317.641
317.641
317.641
472.531
318.961
317.641
472.531
317.641
487.703
318.961
317.641
318.961
472.531
487.703
318.961
472.531
472.531
317.641
317.641
317.641
472.531
318.961
303.97
472.531
472.531
317.641
317.641
318.961
487.703
487.703
487.703
317.641
318.961
317.641
487.703
472.531
317.641
317.641
318.961
318.961
317.641
472.531
318.961
487.703
318.961
472.531
472.531
318.961
318.961
472.531
913.081
318.961
487.703
472.531
969.12
977.577
472.531
472.531
487.703
317.641
317.641
487.703
318.961
487.703
318.961
317.641
487.703
317.641
317.641
472.531
317.641
881.181
912.925
472.531
472.531
318.961
318.961
317.641
487.703
317.641
487.703
317.641
317.641
472.531
487.703
472.531
317.641
323.009
318.961
317.641
487.703
317.641
472.531
317.641
472.531
317.641
472.531
472.531
318.961
317.641
487.703
317.641
472.531
318.961
472.531
487.703
487.703
487.703
317.641
472.531
487.703
973.286
487.703
487.703
317.641
472.531
317.641
317.641
318.961
317.641
318.961
317.641
472.531
487.703
953.633
318.961
318.961
472.531
317.641
317.641
317.641
317.641
472.531
472.531
318.961
318.961
317.641
317.641
1030.5
304.417
487.703
472.531
472.531
317.641
472.531
307.138
487.703
317.641
472.531
487.703
318.961
472.531
318.961
317.641
318.961
1074.18
487.703
318.961
317.641
317.641
317.641
318.961
487.703
318.961
317.641
472.531
317.641
318.961
317.641
487.703
318.961
318.961
487.703
472.531
973.286
317.641
317.641
472.531
472.531
1137.11
487.703
317.641
317.641
472.531
487.703
317.641
487.703
472.531
472.531
317.641
318.961
487.703
1030.22
487.703
317.641
487.703
487.703
318.961
318.961
318.961
318.961
472.531
487.703
487.703
487.703
318.961
317.641
318.961
317.641
472.531
472.531
472.531
472.531
487.703
472.531
472.531
329.883
318.961
317.641
317.641
487.703
487.703
472.531
472.531
472.531
317.641
920.626
318.961
318.961
317.641
487.703
487.703
317.641
318.961
317.641
487.703
318.961
472.531
472.531
317.641
317.641
317.641
317.641
318.961
318.961
318.961
318.961
317.641
317.641
472.531
317.641
472.531
318.961
472.531
472.531
472.531
317.641
317.641
1086.38
318.961
472.531
487.703
472.531
487.703
317.641
472.531
987.119
317.641
306.97
487.703
472.531
472.531
976.854
317.641
317.641
317.641
487.703
306.367
317.641
317.641
1084.12
487.703
317.641
318.961
318.961
318.961
317.641
318.961
487.703
317.641
303.621
318.961
472.531
472.531
472.531
472.531
472.531
317.641
487.703
1067.15
472.531
472.531
472.531
318.961
317.641
317.641
472.531
317.641
317.641
317.641
317.641
318.961
472.531
472.531
487.703
317.641
472.531
317.641
487.703
317.641
961.255
1054.32
472.531
318.961
487.703
487.703
318.961
487.703
338.239
472.531
317.641
318.961
318.961
1086.64
318.961
472.531
487.703
317.641
472.531
317.641
317.641
318.961
318.961
318.961
472.531
318.961
1032.22
487.703
314.657
487.703
487.703
988.397
317.641
472.531
472.531
472.531
317.641
487.703
472.531
318.961
317.641
317.641
487.703
472.531
304.41
472.531
472.531
318.961
487.703
472.531
487.703
472.531
487.703
472.531
472.531
333.957
318.961
472.531
487.703
317.641
317.641
487.703
472.531
318.961
317.641
318.961
472.531
472.531
317.641
487.703
472.531
487.703
319.932
317.641
317.641
318.961
318.961
318.961
318.961
317.641
472.531
487.703
970.665
970.288
487.703
472.531
318.961
472.531
318.961
317.641
472.531
317.641
318.961
487.703
487.703
323.356
472.531
472.531
318.961
472.531
472.531
472.531
472.531
487.703
472.531
487.703
472.531
472.531
318.961
487.703
487.703
472.531
487.703
318.961
350.144
318.961
318.961
472.531
487.703
317.641
472.531
472.531
487.703
317.641
317.641
472.531
487.703
318.961
317.641
487.703
472.531
487.703
487.703
472.531
317.641
472.531
487.703
318.961
318.961
472.531
487.703
317.641
317.641
472.531
487.703
472.531
472.531
1083.61
317.641
318.961
318.961
318.961
318.961
472.531
317.641
317.641
318.961
472.531
487.703
472.531
487.703
318.961