<?xml version="1.0"?>
<VTKFile type="ImageData" version="0.1" byte_order="LittleEndian">
  <ImageData Origin="0 0 0" Spacing="1e-05 1e-05 1e-05" WholeExtent="0 191 0 191 0 0">
    <Piece Extent="0 191 0 191 0 0">
      <CellData Scalars="T">
        <DataArray type="Float32" Name="T" format="ascii" NumberOfComponents="1">
438.447
15000
14999.9
14999.8
14999.6
14999.3
14998.8
14998
14997
14995.5
14993.4
14990.6
14986.7
14981.6
14974.7
14965.8
14954.3
14939.6
14920.9
14897.6
14868.6
14833
14789.6
14737.3
14674.6
14600.3
14513
14411.1
14293.2
14158.1
14004.2
13830.6
13636.1
13419.9
13181.5
12920.7
12637.3
12331.9
12005
11657.9
11291.9
10908.9
10510.9
10100.3
9679.74
9252.14
8820.44
8387.72
7957.08
7531.56
7114.15
6707.64
6314.63
5937.49
5578.27
5238.74
4920.32
4624.08
4350.78
4100.82
3874.31
3671.04
3490.56
3332.17
3195
3078
2980.01
2899.78
2836.02
2787.4
2752.62
2730.42
2719.57
2718.93
2727.43
2744.11
2768.07
2798.53
2834.79
2876.24
2922.34
2972.64
3026.73
3084.27
3144.97
3208.56
3274.8
3343.49
3414.41
3487.37
3562.17
3638.59
3716.43
3795.45
3875.38
3955.95
4036.86
4117.77
4198.35
4278.22
4356.98
4434.25
4509.62
4582.67
4653.02
4720.28
4784.09
4844.12
4900.09
4951.75
4998.91
5041.4
5079.14
5112.09
5140.25
5163.7
5182.54
5196.91
5207.02
5213.07
5215.3
5213.97
5209.33
5201.63
5191.1
5177.95
5162.35
5144.46
5124.35
5102.09
5077.69
5051.12
5022.3
4991.15
4957.57
4921.45
4882.7
4841.24
4797.07
4750.19
4700.71
4648.78
4594.63
4538.57
4480.97
4422.27
4362.98
4303.61
4244.75
4186.96
4130.83
4076.9
4025.71
3977.74
3933.41
3893.09
3857.09
3825.63
3798.87
3776.9
3759.73
3747.33
3739.59
3736.34
3737.38
3742.45
3751.25
3763.43
3778.63
3796.44
3816.43
3838.14
3861.1
3884.81
3908.79
3932.53
3955.52
3977.28
3997.25
4014.88
4029.45
4039.98
4044.88
4041.42
4024.52
3984.59
3903.23
3744.81
3439.85
2850.54
1693.74
313.874
733.298
15000
14999.9
14999.8
14999.6
14999.3
14998.8
14998
14997
14995.5
14993.4
14990.6
14986.7
14981.6
14974.7
14965.8
14954.3
14939.6
14921
14897.7
14868.7
14833.1
14789.8
14737.5
14674.9
14600.6
14513.3
14411.5
14293.7
14158.6
14004.8
13831.3
13636.9
13420.8
13182.5
12921.7
12638.4
12333.1
12006.3
11659.2
11293.3
10910.3
10512.3
10101.7
9681.11
9253.45
8821.67
8388.84
7958.06
7532.39
7114.79
6708.07
6314.84
5937.45
5577.97
5238.16
4919.45
4622.92
4349.32
4099.06
3872.25
3668.69
3487.92
3329.26
3191.82
3074.57
2976.34
2895.89
2831.92
2783.11
2748.16
2725.79
2714.8
2714.02
2722.4
2738.97
2762.82
2793.18
2829.35
2870.7
2916.71
2966.92
3020.92
3078.38
3138.99
3202.49
3268.65
3337.25
3408.09
3480.98
3555.71
3632.08
3709.87
3788.85
3868.75
3949.32
4030.23
4111.17
4191.79
4271.72
4350.57
4427.94
4503.42
4576.61
4647.1
4714.53
4778.51
4838.74
4894.9
4946.77
4994.12
5036.82
5074.77
5107.92
5136.27
5159.9
5178.91
5193.44
5203.69
5209.86
5212.2
5210.96
5206.39
5198.73
5188.23
5175.08
5159.48
5141.56
5121.42
5099.11
5074.65
5048
5019.11
4987.89
4954.23
4918.04
4879.21
4837.7
4793.47
4746.56
4697.04
4645.09
4590.93
4534.88
4477.29
4418.62
4359.36
4300.04
4241.23
4183.5
4127.42
4073.55
4022.43
3974.51
3930.25
3890
3854.05
3822.65
3795.94
3774.02
3756.89
3744.53
3736.82
3733.6
3734.67
3739.75
3748.55
3760.74
3775.93
3793.72
3813.68
3835.35
3858.25
3881.9
3905.81
3929.47
3952.38
3974.04
3993.92
4011.45
4025.92
4036.35
4041.18
4037.68
4020.82
3981.13
3900.56
3744.63
3447.89
2888.01
1844.32
318.451
728.876
15000
14999.9
14999.8
14999.6
14999.3
14998.8
14998.1
14997
14995.5
14993.5
14990.6
14986.8
14981.6
14974.8
14965.9
14954.4
14939.7
14921.1
14897.8
14868.9
14833.4
14790.1
14737.9
14675.3
14601.2
14514
14412.3
14294.6
14159.7
14006.1
13832.7
13638.4
13422.5
13184.4
12923.8
12640.7
12335.5
12008.8
11661.9
11296
10913.1
10515.1
10104.5
9683.84
9256.06
8824.12
8391.08
7960.03
7534.05
7116.09
6708.96
6315.28
5937.4
5577.41
5237.05
4917.77
4620.65
4346.46
4095.61
3868.2
3664.05
3482.71
3323.5
3185.54
3067.78
2969.08
2888.18
2823.8
2774.6
2739.3
2716.61
2705.32
2704.28
2712.41
2728.74
2752.38
2782.54
2818.51
2859.68
2905.51
2955.54
3009.36
3066.64
3127.07
3190.4
3256.39
3324.82
3395.51
3468.25
3542.84
3619.1
3696.79
3775.69
3855.55
3936.1
4017.03
4098.01
4178.72
4258.76
4337.77
4415.33
4491.04
4564.49
4635.29
4703.03
4767.37
4827.97
4884.52
4936.79
4984.55
5027.66
5066.02
5099.56
5128.3
5152.29
5171.64
5186.48
5197.01
5203.43
5205.98
5204.91
5200.47
5192.91
5182.46
5169.34
5153.72
5135.76
5115.54
5093.13
5068.55
5041.77
5012.73
4981.36
4947.55
4911.22
4872.26
4830.63
4786.29
4739.29
4689.72
4637.73
4583.56
4527.51
4469.95
4411.33
4352.14
4292.91
4234.19
4176.57
4120.61
4066.87
4015.86
3968.08
3923.94
3883.81
3847.98
3816.69
3790.09
3768.26
3751.23
3738.94
3731.3
3728.14
3729.25
3734.36
3743.18
3755.36
3770.53
3788.28
3808.17
3829.76
3852.56
3876.09
3899.85
3923.35
3946.09
3967.56
3987.24
4004.58
4018.86
4029.11
4033.79
4030.19
4013.35
3973.97
3894.35
3740.95
3450.34
2903.5
1879.78
318.467
723.254
15000
14999.9
14999.8
14999.6
14999.3
14998.8
14998.1
14997
14995.5
14993.5
14990.6
14986.8
14981.6
14974.9
14966
14954.5
14939.9
14921.3
14898.1
14869.2
14833.8
14790.6
14738.4
14676
14602
14515
14413.4
14296
14161.2
14007.9
13834.7
13640.7
13425.1
13187.2
12926.8
12644
12339
12012.6
11665.8
11300.1
10917.2
10519.2
10108.6
9687.89
9259.96
8827.78
8394.43
7963
7536.56
7118.07
6710.35
6316.01
5937.42
5576.65
5235.49
4915.37
4617.39
4342.31
4090.57
3862.29
3657.27
3475.08
3315.04
3176.29
3057.78
2958.37
2876.8
2811.8
2762.03
2726.2
2703.02
2691.29
2689.83
2697.59
2713.57
2736.88
2766.73
2802.41
2843.29
2888.84
2938.6
2992.15
3049.16
3109.33
3172.39
3238.12
3306.31
3376.76
3449.27
3523.67
3599.74
3677.29
3756.07
3835.86
3916.37
3997.31
4078.37
4159.19
4239.4
4318.64
4396.48
4472.52
4546.36
4617.59
4685.81
4750.67
4811.82
4868.95
4921.81
4970.18
5013.9
5052.85
5086.98
5116.29
5140.83
5160.68
5176
5186.94
5193.74
5196.61
5195.8
5191.56
5184.14
5173.79
5160.7
5145.06
5127.03
5106.7
5084.15
5059.39
5032.42
5003.17
4971.58
4937.55
4901
4861.85
4820.03
4775.55
4728.43
4678.76
4626.72
4572.52
4516.48
4458.98
4400.43
4341.34
4282.24
4223.67
4166.21
4110.43
4056.87
4006.06
3958.46
3914.51
3874.56
3838.91
3807.78
3781.33
3759.65
3742.75
3730.58
3723.04
3719.96
3721.13
3726.28
3735.12
3747.29
3762.43
3780.11
3799.91
3821.38
3844.02
3867.37
3890.92
3914.18
3936.65
3957.84
3977.24
3994.28
4008.27
4018.25
4022.69
4018.92
4002.05
3962.91
3884.08
3732.59
3446.02
2907.07
1897.03
318.763
716.132
15000
14999.9
14999.8
14999.6
14999.3
14998.8
14998.1
14997
14995.5
14993.5
14990.7
14986.8
14981.7
14974.9
14966.1
14954.7
14940
14921.5
14898.4
14869.6
14834.2
14791.2
14739.2
14676.9
14603.1
14516.2
14414.9
14297.7
14163.3
14010.2
13837.3
13643.7
13428.4
13190.8
12930.8
12648.3
12343.6
12017.5
11670.9
11305.4
10922.6
10524.7
10114
9693.23
9265.1
8832.63
8398.89
7966.98
7539.96
7120.79
6712.3
6317.1
5937.58
5575.82
5233.6
4912.38
4613.27
4337.05
4084.15
3854.7
3648.53
3465.22
3304.1
3164.29
3044.79
2944.43
2861.98
2796.14
2745.6
2709.06
2685.23
2672.89
2670.88
2678.12
2693.63
2716.5
2745.93
2781.21
2821.71
2866.88
2916.27
2969.46
3026.11
3085.92
3148.63
3214.02
3281.87
3352
3424.21
3498.33
3574.16
3651.5
3730.13
3809.81
3890.26
3971.21
4052.34
4133.3
4213.74
4293.25
4371.46
4447.93
4522.27
4594.06
4662.9
4728.43
4790.29
4848.18
4901.81
4950.97
4995.49
5035.24
5070.15
5100.21
5125.46
5145.99
5161.92
5173.43
5180.72
5184.01
5183.56
5179.6
5172.38
5162.15
5149.11
5133.46
5115.35
5094.89
5072.15
5047.18
5019.94
4990.42
4958.55
4924.24
4887.41
4848
4805.96
4761.28
4714
4664.21
4612.09
4557.87
4501.85
4444.41
4385.97
4327.02
4268.08
4209.71
4152.47
4096.92
4043.6
3993.04
3945.69
3901.99
3862.28
3826.86
3795.95
3769.71
3748.22
3731.49
3719.48
3712.07
3709.09
3710.34
3715.55
3724.4
3736.56
3751.65
3769.24
3788.92
3810.21
3832.65
3855.74
3879.01
3901.95
3924.08
3944.9
3963.91
3980.56
3994.17
4003.78
4007.9
4003.88
3986.9
3947.89
3869.66
3719.57
3435.74
2900.75
1892.34
318.95
709.895
15000
14999.9
14999.8
14999.6
14999.3
14998.8
14998.1
14997
14995.6
14993.5
14990.7
14986.9
14981.8
14975
14966.2
14954.8
14940.3
14921.8
14898.7
14870.1
14834.8
14791.9
14740
14678
14604.4
14517.8
14416.7
14299.8
14165.7
14013
13840.5
13647.2
13432.3
13195.2
12935.6
12653.5
12349.2
12023.4
11677.1
11311.8
10929.2
10531.4
10120.7
9699.79
9271.44
8838.64
8404.45
7971.97
7544.25
7124.28
6714.86
6318.65
5938
5575.04
5231.54
4908.99
4608.5
4330.86
4076.54
3845.67
3638.09
3453.4
3290.93
3149.82
3029.08
2927.54
2843.97
2777.1
2725.59
2688.15
2663.49
2650.39
2647.67
2654.27
2669.17
2691.47
2720.37
2755.14
2795.15
2839.85
2888.77
2941.5
2997.7
3057.05
3119.32
3184.27
3251.7
3321.42
3393.26
3467.03
3542.55
3619.62
3698.04
3777.56
3857.94
3938.89
4020.09
4101.21
4181.89
4261.74
4340.36
4417.35
4492.28
4564.75
4634.34
4700.68
4763.41
4822.21
4876.79
4926.92
4972.42
5013.14
5049.01
5080
5106.13
5127.5
5144.2
5156.41
5164.32
5168.15
5168.13
5164.53
5157.57
5147.51
5134.55
5118.9
5100.7
5080.09
5057.14
5031.89
5004.36
4974.51
4942.3
4907.64
4870.49
4830.76
4788.44
4743.52
4696.05
4646.13
4593.92
4539.67
4483.68
4426.31
4368
4309.22
4250.5
4192.37
4135.4
4080.14
4027.12
3976.87
3929.83
3886.43
3847.02
3811.89
3781.26
3755.27
3734.01
3717.49
3705.67
3698.41
3695.57
3696.91
3702.18
3711.05
3723.19
3738.2
3755.69
3775.2
3796.27
3818.45
3841.23
3864.14
3886.68
3908.38
3928.75
3947.28
3963.45
3976.58
3985.74
3989.45
3985.1
3967.93
3928.95
3851.17
3702.24
3420.76
2889.91
1885.36
319.275
704.878
15000
14999.9
14999.8
14999.6
14999.3
14998.8
14998.1
14997
14995.6
14993.5
14990.7
14986.9
14981.9
14975.1
14966.3
14955
14940.5
14922.1
14899.1
14870.6
14835.4
14792.7
14741
14679.2
14605.8
14519.5
14418.7
14302.2
14168.4
14016.1
13844.1
13651.3
13436.8
13200.2
12941.1
12659.4
12355.6
12030.2
11684.3
11319.3
10936.9
10539.2
10128.5
9707.49
9278.92
8845.76
8411.08
7977.96
7549.46
7128.57
6718.11
6320.72
5938.8
5574.44
5229.48
4905.37
4603.28
4324
4068.01
3835.47
3626.23
3439.91
3275.84
3133.2
3010.97
2908.02
2823.13
2755
2702.33
2663.8
2638.14
2624.11
2620.53
2626.33
2640.49
2662.1
2690.34
2724.48
2763.89
2808.01
2856.36
2908.53
2964.17
3022.98
3084.71
3149.13
3216.05
3285.28
3356.65
3429.99
3505.13
3581.87
3660.02
3739.35
3819.61
3900.53
3981.79
4063.07
4144.02
4224.24
4303.33
4380.9
4456.51
4529.74
4600.19
4667.47
4731.21
4791.07
4846.75
4898.02
4944.65
4986.52
5023.52
5055.6
5082.79
5105.14
5122.76
5135.81
5144.46
5148.94
5149.47
5146.29
5139.67
5129.82
5116.98
5101.33
5083.06
5062.28
5039.1
5013.56
4985.69
4955.46
4922.86
4887.81
4850.27
4810.19
4767.55
4722.36
4674.66
4624.58
4572.28
4518
4462.04
4404.77
4346.61
4288.04
4229.56
4171.73
4115.08
4060.16
4007.51
3957.62
3910.95
3867.92
3828.86
3794.07
3763.76
3738.07
3717.08
3700.81
3689.2
3682.13
3679.43
3680.88
3686.21
3695.1
3707.2
3722.13
3739.46
3758.77
3779.59
3801.44
3823.85
3846.33
3868.4
3889.58
3909.41
3927.38
3942.97
3955.54
3964.16
3967.38
3962.63
3945.19
3906.19
3828.79
3681
3402.19
2878.06
1895.39
320.12
700.545
15000
14999.9
14999.8
14999.6
14999.3
14998.8
14998.1
14997.1
14995.6
14993.6
14990.8
14987
14981.9
14975.2
14966.5
14955.2
14940.8
14922.5
14899.6
14871.1
14836.1
14793.5
14742
14680.4
14607.3
14521.3
14420.9
14304.8
14171.4
14019.6
13848
13655.7
13441.8
13205.7
12947.2
12666
12362.7
12037.8
11692.3
11327.6
10945.5
10548
10137.3
9716.24
9287.45
8853.92
8418.72
7984.92
7555.59
7133.7
6722.1
6323.42
5940.07
5574.18
5227.57
4901.73
4597.84
4316.71
4058.84
3824.4
3613.27
3425.08
3259.19
3114.77
2990.84
2886.26
2799.82
2730.24
2676.2
2636.39
2609.54
2594.41
2589.81
2594.66
2607.93
2628.71
2656.17
2689.57
2728.26
2771.69
2819.36
2870.86
2925.84
2984.01
3045.1
3108.9
3175.21
3243.85
3314.68
3387.51
3462.19
3538.53
3616.35
3695.43
3775.52
3856.37
3937.68
4019.11
4100.32
4180.93
4260.53
4338.72
4415.07
4489.15
4560.55
4628.87
4693.73
4754.78
4811.71
4864.25
4912.19
4955.35
4993.63
5026.97
5055.36
5078.85
5097.54
5111.56
5121.08
5126.32
5127.49
5124.85
5118.62
5109.04
5096.35
5080.75
5062.41
5041.47
5018.04
4992.19
4963.94
4933.32
4900.28
4864.8
4826.84
4786.37
4743.37
4697.87
4649.93
4599.67
4547.27
4492.96
4437.04
4379.88
4321.91
4263.57
4205.39
4147.89
4091.61
4037.09
3984.85
3935.39
3889.14
3846.53
3807.88
3773.47
3743.53
3718.18
3697.51
3681.52
3670.15
3663.28
3660.75
3662.31
3667.7
3676.6
3688.65
3703.46
3720.62
3739.68
3760.19
3781.66
3803.63
3825.61
3847.13
3867.72
3886.92
3904.24
3919.18
3931.1
3939.1
3941.76
3936.53
3918.78
3879.71
3802.71
3656.21
3380.49
2862.79
1892.94
320.556
697.362
15000
14999.9
14999.8
14999.6
14999.3
14998.8
14998.1
14997.1
14995.6
14993.6
14990.8
14987.1
14982
14975.4
14966.7
14955.4
14941
14922.8
14900
14871.7
14836.8
14794.4
14743.1
14681.8
14609
14523.2
14423.2
14307.5
14174.6
14023.2
13852.2
13660.4
13447.1
13211.6
12953.7
12673.1
12370.3
12045.9
11700.9
11336.7
10954.9
10557.6
10147
9725.89
9296.91
8863.03
8427.3
7992.81
7562.61
7139.68
6726.87
6326.82
5941.94
5574.39
5226
4898.27
4592.41
4309.25
4049.3
3812.76
3599.54
3409.27
3241.34
3094.93
2969.07
2862.65
2774.45
2703.21
2647.6
2606.33
2578.11
2561.7
2555.91
2559.65
2571.89
2591.7
2618.24
2650.76
2688.62
2731.23
2778.11
2828.84
2883.06
2940.47
3000.83
3063.9
3129.51
3197.49
3267.67
3339.9
3414.04
3489.91
3567.32
3646.08
3725.96
3806.7
3888.01
3969.57
4051.03
4132.03
4212.15
4290.99
4368.12
4443.11
4515.53
4584.98
4651.06
4713.41
4771.7
4825.65
4875.02
4919.63
4959.34
4994.08
5023.82
5048.6
5068.49
5083.61
5094.14
5100.25
5102.17
5100.14
5094.38
5085.15
5072.67
5057.14
5038.76
5017.67
4994
4967.82
4939.19
4908.13
4874.64
4838.7
4800.28
4759.38
4716
4670.18
4621.98
4571.53
4519.02
4464.68
4408.82
4351.8
4294.02
4235.96
4178.11
4120.99
4065.13
4011.05
3959.28
3910.29
3864.52
3822.37
3784.18
3750.21
3720.68
3695.71
3675.39
3659.71
3648.6
3641.95
3639.59
3641.26
3646.71
3655.6
3667.58
3682.25
3699.2
3717.97
3738.12
3759.16
3780.62
3802.04
3822.93
3842.85
3861.34
3877.93
3892.13
3903.33
3910.64
3912.67
3906.91
3888.79
3849.64
3773.08
3628.07
3356.07
2847.3
1897.75
321.281
692.337
15000
14999.9
14999.8
14999.6
14999.3
14998.8
14998.1
14997.1
14995.6
14993.6
14990.9
14987.1
14982.1
14975.5
14966.8
14955.6
14941.3
14923.2
14900.4
14872.2
14837.6
14795.3
14744.2
14683.1
14610.6
14525.2
14425.6
14310.2
14177.8
14026.9
13856.5
13665.3
13452.6
13217.8
12960.4
12680.5
12378.4
12054.6
11710.1
11346.3
10964.9
10567.8
10157.5
9736.32
9307.18
8872.98
8436.75
8001.57
7570.49
7146.5
6732.44
6330.96
5944.49
5575.19
5224.91
4895.18
4587.21
4301.87
4039.68
3800.88
3585.38
3392.84
3222.66
3074.07
2946.09
2837.62
2747.46
2674.35
2616.98
2574.06
2544.28
2526.42
2519.28
2521.74
2532.79
2551.48
2576.96
2608.47
2645.36
2687.04
2733.01
2782.85
2836.2
2892.76
2952.27
3014.53
3079.33
3146.54
3215.99
3287.54
3361.04
3436.35
3513.29
3591.66
3671.26
3751.83
3833.09
3914.73
3996.42
4077.79
4158.42
4237.92
4315.86
4391.79
4465.28
4535.92
4603.3
4667.03
4726.79
4782.26
4833.18
4879.36
4920.64
4956.91
4988.15
5014.35
5035.58
5051.94
5063.58
5070.69
5073.47
5072.14
5066.95
5058.13
5045.92
5030.52
5012.13
4990.92
4967.01
4940.52
4911.5
4880
4846.03
4809.61
4770.72
4729.37
4685.59
4639.42
4590.95
4540.31
4487.69
4433.33
4377.53
4320.66
4263.12
4205.36
4147.88
4091.18
4035.77
3982.19
3930.93
3882.46
3837.22
3795.59
3757.9
3724.41
3695.32
3670.77
3650.82
3635.47
3624.65
3618.24
3616.04
3617.84
3623.33
3632.2
3644.08
3658.58
3675.27
3693.72
3713.44
3733.99
3754.89
3775.67
3795.86
3815.03
3832.74
3848.53
3861.92
3872.32
3878.88
3880.21
3873.88
3855.36
3816.13
3740.05
3596.56
3327.9
2824.66
1876.42
320.62
691.453
15000
14999.9
14999.8
14999.6
14999.3
14998.8
14998.1
14997.1
14995.7
14993.7
14990.9
14987.2
14982.2
14975.6
14966.9
14955.8
14941.5
14923.5
14900.9
14872.8
14838.3
14796.2
14745.3
14684.5
14612.2
14527.2
14427.9
14313
14181
14030.7
13860.8
13670.3
13458.2
13224
12967.4
12688.2
12386.7
12063.5
11719.6
11356.3
10975.4
10578.6
10168.4
9747.35
9318.11
8883.63
8446.94
8011.1
7579.17
7154.12
6738.8
6335.87
5947.77
5576.67
5224.44
4892.62
4582.45
4294.81
4030.26
3789.04
3571.11
3376.14
3203.55
3052.59
2922.3
2811.59
2719.29
2644.12
2584.81
2540.04
2508.53
2489.03
2480.36
2481.39
2491.08
2508.5
2532.77
2563.14
2598.92
2639.54
2684.48
2733.31
2785.68
2841.27
2899.84
2961.17
3025.08
3091.41
3160.03
3230.81
3303.59
3378.25
3454.62
3532.53
3611.77
3692.1
3773.25
3854.93
3936.8
4018.5
4099.62
4179.77
4258.51
4335.4
4409.99
4481.86
4550.59
4615.78
4677.08
4734.16
4786.74
4834.59
4877.55
4915.49
4948.34
4976.1
4998.8
5016.52
5029.41
5037.63
5041.37
5040.86
5036.33
5028
5016.13
5000.91
4982.57
4961.27
4937.16
4910.36
4880.96
4849.02
4814.58
4777.66
4738.29
4696.49
4652.3
4605.77
4557.02
4506.19
4453.46
4399.09
4343.37
4286.67
4229.38
4171.96
4114.87
4058.62
4003.72
3950.68
3899.97
3852.07
3807.4
3766.33
3729.17
3696.2
3667.6
3643.49
3623.94
3608.94
3598.42
3592.24
3590.22
3592.12
3597.65
3606.48
3618.24
3632.53
3648.93
3666.99
3686.25
3706.24
3726.51
3746.58
3766.01
3784.36
3801.21
3816.13
3828.64
3838.18
3843.93
3844.52
3837.57
3818.62
3779.29
3703.7
3561.67
3295.98
2797.78
1857.85
319.522
697.371
15000
14999.9
14999.8
14999.6
14999.3
14998.8
14998.1
14997.1
14995.7
14993.7
14990.9
14987.2
14982.2
14975.7
14967.1
14956
14941.8
14923.8
14901.3
14873.3
14838.9
14797
14746.4
14685.8
14613.8
14529.1
14430.2
14315.7
14184.2
14034.4
13865.1
13675.1
13463.7
13230.3
12974.3
12695.8
12395
12072.5
11729.3
11366.6
10986.1
10589.7
10179.8
9758.83
9329.54
8894.85
8457.75
8021.31
7588.56
7162.49
6745.94
6341.57
5951.84
5578.92
5224.7
4890.75
4578.31
4288.29
4021.28
3777.54
3557.05
3359.51
3184.37
3030.88
2898.12
2785
2690.37
2612.98
2551.53
2504.74
2471.31
2450.01
2439.63
2439.06
2447.24
2463.23
2486.14
2515.22
2549.76
2589.18
2632.97
2680.68
2731.95
2786.46
2843.97
2904.27
2967.18
3032.55
3100.24
3170.13
3242.11
3316.02
3391.74
3469.09
3547.89
3627.9
3708.87
3790.51
3872.5
3954.48
4036.06
4116.82
4196.35
4274.18
4349.88
4423
4493.11
4559.8
4622.7
4681.46
4735.78
4785.41
4830.16
4869.87
4904.45
4933.88
4958.17
4977.38
4991.64
5001.08
5005.91
5006.32
5002.53
4994.8
4983.34
4968.38
4950.14
4928.8
4904.53
4877.46
4847.7
4815.34
4780.43
4743.03
4703.17
4660.91
4616.3
4569.42
4520.39
4469.36
4416.54
4362.16
4306.54
4250.02
4193.02
4135.95
4079.29
4023.54
3969.17
3916.7
3866.59
3819.3
3775.23
3734.75
3698.18
3665.75
3637.66
3614.02
3594.89
3580.25
3570.04
3564.1
3562.25
3564.25
3569.79
3578.55
3590.16
3604.2
3620.26
3637.89
3656.62
3676.01
3695.58
3714.88
3733.48
3750.95
3766.88
3780.86
3792.43
3801.06
3805.93
3805.73
3798.12
3778.73
3739.29
3664.16
3523.51
3260.49
2766.3
1833.35
318.626
704.519
15000
14999.9
14999.8
14999.6
14999.3
14998.8
14998.1
14997.1
14995.7
14993.7
14991
14987.3
14982.3
14975.8
14967.2
14956.2
14942
14924.1
14901.7
14873.8
14839.5
14797.8
14747.4
14687
14615.3
14530.9
14432.3
14318.3
14187.3
14038
13869.2
13679.9
13469.1
13236.3
12981.1
12703.3
12403.2
12081.5
11738.9
11376.8
10996.9
10601
10191.4
9770.58
9341.33
8906.49
8469.05
8032.07
7598.57
7171.53
6753.8
6348.04
5956.7
5581.98
5225.77
4889.67
4574.93
4282.49
4012.96
3766.63
3543.5
3343.28
3165.46
3009.32
2873.94
2758.27
2661.16
2581.37
2517.63
2468.64
2433.13
2409.84
2397.59
2395.25
2401.76
2416.15
2437.56
2465.19
2498.36
2536.45
2578.95
2625.41
2675.46
2728.78
2785.13
2844.29
2906.09
2970.39
3037.05
3105.97
3177.03
3250.11
3325.08
3401.78
3480.04
3559.64
3640.35
3721.88
3803.91
3886.1
3968.07
4049.4
4129.67
4208.42
4285.21
4359.58
4431.08
4499.3
4563.84
4624.33
4680.46
4731.94
4778.55
4820.13
4856.55
4887.76
4913.76
4934.58
4950.31
4961.11
4967.12
4968.56
4965.64
4958.58
4947.63
4933.01
4914.94
4893.63
4869.24
4841.94
4811.86
4779.1
4743.75
4705.87
4665.55
4622.84
4577.82
4530.59
4481.29
4430.07
4377.15
4322.79
4267.27
4210.96
4154.25
4097.57
4041.37
3986.13
3932.34
3880.47
3830.99
3784.34
3740.91
3701.05
3665.08
3633.23
3605.67
3582.52
3563.82
3549.56
3539.65
3533.95
3532.26
3534.33
3539.87
3548.53
3559.95
3573.7
3589.38
3606.52
3624.68
3643.4
3662.21
3680.69
3698.39
3714.92
3729.87
3742.85
3753.43
3761.09
3765.05
3764.02
3755.72
3735.85
3696.29
3621.58
3482.22
3221.71
2731.41
1801.98
317.552
702.246
15000
14999.9
14999.8
14999.6
14999.3
14998.8
14998.1
14997.1
14995.7
14993.7
14991
14987.3
14982.4
14975.8
14967.3
14956.3
14942.2
14924.4
14902
14874.3
14840.1
14798.5
14748.2
14688.1
14616.6
14532.5
14434.4
14320.7
14190.1
14041.3
13873.1
13684.4
13474.3
13242.2
12987.7
12710.6
12411.3
12090.2
11748.4
11387
11007.6
10612.2
10203
9782.46
9353.31
8918.4
8480.71
8043.26
7609.1
7181.17
6762.32
6355.23
5962.35
5585.87
5227.71
4889.48
4572.45
4277.59
4005.51
3756.54
3530.7
3327.74
3147.16
2988.26
2850.15
2731.8
2632.06
2549.73
2483.54
2432.2
2394.44
2369.01
2354.72
2350.44
2355.11
2367.76
2387.51
2413.56
2445.2
2481.83
2522.91
2567.99
2616.7
2668.72
2723.79
2781.71
2842.29
2905.42
2970.95
3038.79
3108.84
3180.98
3255.1
3331.05
3408.68
3487.77
3568.12
3649.44
3731.43
3813.76
3896.04
3977.87
4058.82
4138.45
4216.29
4291.88
4364.77
4434.52
4500.71
4562.96
4620.94
4674.32
4722.88
4766.4
4804.76
4837.85
4865.65
4888.19
4905.52
4917.78
4925.1
4927.68
4925.72
4919.45
4909.1
4894.9
4877.09
4855.87
4831.44
4803.97
4773.61
4740.49
4704.72
4666.41
4625.63
4582.49
4537.08
4489.51
4439.95
4388.56
4335.56
4281.21
4225.82
4169.73
4113.34
4057.06
4001.34
3946.64
3893.44
3842.21
3793.38
3747.39
3704.63
3665.43
3630.08
3598.82
3571.81
3549.15
3530.9
3517.01
3507.4
3501.93
3500.39
3502.52
3508.02
3516.56
3527.74
3541.17
3556.41
3573.02
3590.55
3608.54
3626.54
3644.13
3660.88
3676.41
3690.32
3702.26
3711.8
3718.44
3721.45
3719.56
3710.54
3690.18
3650.47
3576.15
3438
3179.87
2693.23
1763.54
316.335
700.235
15000
14999.9
14999.8
14999.6
14999.3
14998.8
14998.1
14997.1
14995.7
14993.7
14991
14987.3
14982.4
14975.9
14967.4
14956.4
14942.4
14924.6
14902.3
14874.6
14840.6
14799.1
14749.1
14689.1
14617.9
14534.1
14436.2
14322.9
14192.8
14044.5
13876.8
13688.7
13479.2
13247.8
12993.9
12717.6
12419.1
12098.8
11757.6
11396.9
11018.1
10623.3
10214.5
9794.32
9365.35
8930.45
8492.59
8054.78
7620.04
7191.31
6771.45
6363.11
5968.76
5590.6
5230.55
4890.24
4570.96
4273.69
3999.08
3747.46
3518.9
3313.15
3129.75
2968.01
2827.08
2705.95
2603.48
2518.49
2449.71
2395.87
2355.71
2327.99
2311.5
2305.13
2307.81
2318.56
2336.49
2360.8
2390.78
2425.8
2465.34
2508.92
2556.17
2606.76
2660.45
2717
2776.27
2838.12
2902.42
2969.08
3038.01
3109.11
3182.27
3257.38
3334.26
3412.75
3492.63
3573.64
3655.5
3737.86
3820.37
3902.61
3984.18
4064.61
4143.45
4220.22
4294.46
4365.72
4433.57
4497.6
4557.44
4612.78
4663.33
4708.87
4749.22
4784.29
4814
4838.35
4857.39
4871.21
4879.95
4883.78
4882.9
4877.52
4867.87
4854.2
4836.73
4815.69
4791.28
4763.7
4733.13
4699.7
4663.57
4624.84
4583.65
4540.1
4494.31
4446.44
4396.63
4345.07
4292.01
4237.7
4182.44
4126.59
4070.53
4014.67
3959.45
3905.31
3852.73
3802.14
3753.99
3708.69
3666.61
3628.08
3593.37
3562.71
3536.26
3514.11
3496.29
3482.77
3473.46
3468.2
3466.78
3468.95
3474.39
3482.75
3493.67
3506.72
3521.48
3537.51
3554.35
3571.56
3588.7
3605.34
3621.09
3635.57
3648.4
3659.25
3667.71
3673.3
3675.32
3672.54
3662.78
3641.9
3602.02
3528.07
3391.11
3135.47
2653.87
1741.63
315.758
696.001
15000
14999.9
14999.8
14999.6
14999.3
14998.8
14998.1
14997.1
14995.7
14993.8
14991.1
14987.4
14982.5
14976
14967.5
14956.5
14942.5
14924.8
14902.6
14875
14841.1
14799.7
14749.8
14690
14619
14535.4
14437.9
14325
14195.2
14047.4
13880.2
13692.6
13483.8
13253
12999.9
12724.3
12426.5
12106.9
11766.5
11406.5
11028.4
10634.1
10225.9
9806.06
9377.33
8942.53
8504.59
8066.51
7631.29
7201.88
6781.1
6371.62
5975.9
5596.15
5234.31
4892
4570.53
4270.91
3993.8
3739.56
3508.27
3299.73
3113.48
2948.88
2805.07
2681.07
2575.78
2488.02
2416.53
2360.08
2317.38
2287.22
2268.4
2259.79
2260.32
2269.02
2284.99
2307.42
2335.59
2368.88
2406.73
2448.68
2494.35
2543.4
2595.58
2650.68
2708.52
2768.98
2831.95
2897.33
2965.04
3035
3107.1
3181.25
3257.29
3335.06
3414.37
3494.96
3576.57
3658.87
3741.5
3824.07
3906.15
3987.31
4067.07
4144.96
4220.5
4293.24
4362.72
4428.51
4490.24
4547.54
4600.12
4647.72
4690.14
4727.25
4758.95
4785.21
4806.05
4821.55
4831.82
4837.01
4837.31
4832.93
4824.1
4811.05
4794.02
4773.24
4748.94
4721.34
4690.61
4656.94
4620.49
4581.41
4539.83
4495.91
4449.78
4401.61
4351.58
4299.89
4246.77
4192.51
4137.4
4081.8
4026.09
3970.66
3915.94
3862.39
3810.43
3760.51
3713.05
3668.45
3627.06
3589.21
3555.15
3525.1
3499.21
3477.56
3460.17
3447.02
3437.98
3432.92
3431.6
3433.77
3439.11
3447.27
3457.87
3470.5
3484.73
3500.12
3516.23
3532.61
3548.83
3564.49
3579.18
3592.56
3604.28
3613.99
3621.33
3625.85
3626.85
3623.16
3612.64
3591.23
3551.17
3477.6
3341.96
3089.43
2615.06
1719.09
315.185
693.999
15000
14999.9
14999.8
14999.6
14999.3
14998.8
14998.1
14997.2
14995.7
14993.8
14991.1
14987.4
14982.5
14976
14967.6
14956.6
14942.7
14925
14902.8
14875.3
14841.5
14800.2
14750.4
14690.8
14620
14536.7
14439.4
14326.8
14197.5
14050
13883.3
13696.3
13488.1
13257.9
13005.5
12730.6
12433.5
12114.7
11775
11415.7
11038.3
10644.7
10237
9817.6
9389.2
8954.57
8516.63
8078.38
7642.79
7212.79
6791.21
6380.7
5983.73
5602.51
5238.97
4894.76
4571.21
4269.31
3989.77
3732.97
3498.99
3287.67
3098.58
2931.09
2784.37
2657.47
2549.29
2458.68
2384.4
2325.21
2279.87
2247.15
2225.86
2214.87
2213.12
2219.63
2233.49
2253.9
2280.13
2311.54
2347.58
2387.78
2431.74
2479.14
2529.71
2583.23
2639.54
2698.52
2760.04
2824.04
2890.43
2959.14
3030.09
3103.16
3178.25
3255.2
3333.82
3413.88
3495.13
3577.24
3659.88
3742.67
3825.17
3906.96
3987.55
4066.49
4143.27
4217.42
4288.49
4356.03
4419.62
4478.89
4533.52
4583.21
4627.75
4666.96
4700.71
4728.97
4751.7
4768.97
4780.87
4787.53
4789.13
4785.85
4777.94
4765.61
4749.12
4728.71
4704.62
4677.06
4646.26
4612.41
4575.71
4536.32
4494.42
4450.16
4403.73
4355.3
4305.06
4253.25
4200.1
4145.9
4090.96
4035.63
3980.27
3925.28
3871.08
3818.11
3766.79
3717.54
3670.78
3626.88
3586.19
3549.02
3515.61
3486.17
3460.83
3439.67
3422.71
3409.9
3401.13
3396.23
3394.98
3397.12
3402.32
3410.24
3420.48
3432.65
3446.3
3461.01
3476.33
3491.83
3507.08
3521.7
3535.31
3547.55
3558.11
3566.66
3572.85
3576.27
3576.24
3571.62
3560.32
3538.36
3498.12
3424.96
3290.75
3041.48
2573.71
1691.5
314.789
691.355
15000
14999.9
14999.8
14999.6
14999.3
14998.8
14998.2
14997.2
14995.7
14993.8
14991.1
14987.4
14982.5
14976.1
14967.6
14956.7
14942.8
14925.1
14903
14875.6
14841.8
14800.7
14751
14691.5
14620.9
14537.9
14440.9
14328.5
14199.5
14052.5
13886.3
13699.8
13492.1
13262.5
13010.8
12736.6
12440.2
12122.1
11783.2
11424.6
11047.9
10655
10247.8
9828.92
9400.89
8966.5
8528.66
8090.32
7654.46
7223.98
6801.72
6390.31
5992.21
5609.64
5244.53
4898.54
4573
4268.94
3987.06
3727.77
3491.18
3277.13
3085.23
2914.86
2765.24
2635.4
2524.3
2430.78
2353.64
2291.65
2243.56
2208.17
2184.29
2170.8
2166.64
2170.82
2182.45
2200.7
2224.85
2254.26
2288.37
2326.69
2368.83
2414.46
2463.3
2515.15
2569.83
2627.21
2687.2
2749.71
2814.68
2882.04
2951.72
3023.63
3097.65
3173.66
3251.48
3330.89
3411.66
3493.47
3576.01
3658.89
3741.7
3824
3905.34
3985.22
4063.15
4138.66
4211.26
4280.49
4345.91
4407.14
4463.81
4515.62
4562.3
4603.65
4639.53
4669.84
4694.55
4713.68
4727.3
4735.53
4738.52
4736.46
4729.57
4718.08
4702.24
4682.29
4658.49
4631.07
4600.28
4566.34
4529.45
4489.82
4447.64
4403.1
4356.4
4307.74
4257.33
4205.42
4152.26
4098.14
4043.38
3988.31
3933.31
3878.77
3825.1
3772.71
3722.03
3673.46
3627.39
3584.2
3544.21
3507.71
3474.94
3446.1
3421.31
3400.63
3384.07
3371.58
3363.04
3358.28
3357.07
3359.14
3364.17
3371.79
3381.64
3393.29
3406.32
3420.29
3434.78
3449.35
3463.61
3477.15
3489.62
3500.7
3510.07
3517.43
3522.46
3524.75
3523.67
3518.11
3506.02
3483.51
3443.1
3370.39
3237.76
2992.23
2532.25
1661.82
314.475
685.903
15000
14999.9
14999.8
14999.6
14999.3
14998.8
14998.2
14997.2
14995.8
14993.8
14991.1
14987.4
14982.6
14976.1
14967.7
14956.8
14942.9
14925.3
14903.2
14875.8
14842.1
14801.1
14751.6
14692.2
14621.8
14538.9
14442.2
14330.2
14201.5
14054.9
13889.1
13703
13495.9
13266.9
13015.8
12742.3
12446.6
12129.3
11791.1
11433.2
11057.2
10664.9
10258.4
9840.03
9412.42
8978.33
8540.65
8102.31
7666.27
7235.43
6812.59
6400.4
6001.3
5617.51
5250.96
4903.32
4575.93
4269.81
3985.71
3724.03
3484.91
3268.21
3073.56
2900.36
2747.85
2615.1
2501.06
2404.61
2324.56
2259.69
2208.79
2170.64
2144.07
2127.98
2121.29
2123.03
2132.3
2148.27
2170.22
2197.5
2229.55
2265.88
2306.09
2349.83
2396.85
2446.91
2499.86
2555.55
2613.91
2674.84
2738.29
2804.2
2872.51
2943.14
3015.99
3090.95
3167.85
3246.49
3326.66
3408.05
3490.36
3573.21
3656.21
3738.91
3820.87
3901.59
3980.58
4057.35
4131.41
4202.27
4269.49
4332.64
4391.34
4445.25
4494.08
4537.61
4575.64
4608.07
4634.82
4655.88
4671.32
4681.21
4685.69
4684.95
4679.19
4668.64
4653.54
4634.16
4610.75
4583.57
4552.88
4518.91
4481.91
4442.1
4399.7
4354.94
4308.01
4259.16
4208.62
4156.64
4103.48
4049.46
3994.88
3940.09
3885.46
3831.37
3778.22
3726.42
3676.36
3628.46
3583.09
3540.59
3501.28
3465.45
3433.32
3405.06
3380.79
3360.57
3344.39
3332.2
3323.86
3319.21
3318
3319.96
3324.77
3332.07
3341.47
3352.56
3364.92
3378.11
3391.72
3405.33
3418.54
3430.97
3442.29
3452.16
3460.32
3466.47
3470.32
3471.48
3469.33
3462.82
3449.94
3426.88
3386.3
3314.1
3183.23
2942.04
2492.7
1653.35
314.451
679.325
15000
14999.9
14999.8
14999.6
14999.3
14998.8
14998.2
14997.2
14995.8
14993.8
14991.1
14987.5
14982.6
14976.2
14967.8
14956.9
14943
14925.4
14903.4
14876.1
14842.5
14801.5
14752.1
14692.9
14622.7
14540
14443.5
14331.8
14203.4
14057.2
13891.8
13706.2
13499.6
13271.2
13020.7
12747.8
12452.8
12136.2
11798.7
11441.6
11066.3
10674.7
10268.8
9850.96
9423.81
8990.08
8552.61
8114.35
7678.22
7247.11
6823.81
6410.94
6010.97
5626.09
5258.24
4909.08
4579.97
4271.94
3985.74
3721.79
3480.25
3260.99
3063.67
2887.71
2732.36
2596.72
2479.76
2380.38
2297.4
2229.63
2175.86
2134.88
2105.56
2086.76
2077.45
2076.65
2083.44
2097.03
2116.67
2141.7
2171.58
2205.8
2243.97
2285.73
2330.81
2378.99
2430.1
2484.02
2540.64
2599.9
2661.74
2726.1
2792.94
2862.19
2933.76
3007.56
3083.43
3161.19
3240.63
3321.47
3403.42
3486.12
3569.17
3652.15
3734.61
3816.06
3896
3973.93
4049.35
4121.77
4190.71
4255.73
4316.43
4372.43
4423.41
4469.12
4509.34
4543.91
4572.75
4595.82
4613.14
4624.77
4630.85
4631.52
4626.98
4617.47
4603.22
4584.5