<?xml version="1.0"?>
<VTKFile type="PolyData" version="0.1" byte_order="LittleEndian">
  <PolyData>
    <Piece NumberOfPoints="50000" NumberOfVerts="50000" NumberOfLines="0" NumberOfStrips="0" NumberOfPolys="0">
      <Points>
        <DataArray type="Float32" NumberOfComponents="3" format="ascii">
0.154952 0.00381312 0
-0.146016 0.00160754 0
0.14988 -0.000515901 0
0.156606 -0.000311036 0
-0.126792 0.00292707 0
-0.106376 0.0013452 0
0.0515306 -0.00942145 0
-0.131359 0.000480605 0
0.0456167 -0.00724691 0
-0.00974502 0.00394531 0
0.117446 -0.00435503 0
0.14961 0.00352805 0
-0.0852067 0.00322686 0
-0.0600576 -0.0088583 0
-0.159464 0.0013759 0
0.12101 0.00521068 0
-0.0217603 -0.000307236 0
0.155227 0.00113654 0
0.0590621 0.00105603 0
-0.146126 0.00193441 0
-0.153247 0.0026249 0
0.134374 0.00309657 0
-0.151085 0.0014885 0
0.151547 0.000503225 0
0.0964316 -0.00439048 0
0.112546 0.00547837 0
-0.14955 -0.00239629 0
0.155618 -0.000799493 0
-0.106732 0.00955214 0
-0.157866 0.00400036 0
-0.11847 0.00516825 0
-0.109828 -0.00583488 0
0.1542 0.000823598 0
0.155019 9.64748e-05 0
0.0298345 0.00248608 0
0.157711 -0.000124995 0
0.0481188 0.00108416 0
-0.156688 0.00147136 0
-0.146149 -0.00150885 0
-0.162575 -0.000457025 0
0.113434 0.00557033 0
0.120043 0.00287797 0
-0.149657 -0.000413061 0
0.153227 0.000787345 0
0.158504 0.00101384 0
-0.153972 0.00387232 0
0.151047 0.00243516 0
0.0773507 -0.00524564 0
0.14898 0.000641445 0
0.152556 0.000581602 0
0.0638486 0.00878275 0
-0.151082 0.00010028 0
-0.104596 0.00416108 0
0.150635 0.00165134 0
-0.148638 0.0014626 0
-0.158343 0.00152331 0
0.155077 3.0202e-05 0
0.0626129 0.00499024 0
0.115753 0.00343335 0
0.160048 -0.00136434 0
0.130474 0.00235977 0
0.156779 0.00156087 0
0.0347057 -0.0118084 0
0.159926 -0.000158918 0
-0.0506721 0.00703715 0
-0.148255 0.00108143 0
0.152036 0.000173976 0
0.156027 0.000272106 0
0.161311 0.0020833 0
0.111811 0.000900018 0
-0.149836 0.00180266 0
0.151967 0.00198726 0
0.0834505 0.00103867 0
0.0847393 0.00316586 0
0.0724133 0.00251381 0
-0.15225 -0.000435939 0
0.132341 0.00533088 0
-0.144294 0.0022195 0
0.116898 0.00317465 0
-0.157977 0.00118132 0
-0.0788145 -0.0123415 0
-0.154861 0.00224257 0
0.143744 0.00252294 0
-0.150636 0.000795079 0
0.159852 -0.00127748 0
-0.150823 0.00183635 0
0.16007 -0.00124474 0
-0.0673908 -0.00270994 0
-0.0651031 0.00934625 0
-0.152389 -0.00220453 0
0.150677 0.00312871 0
-0.149021 0.000305855 0
0.151119 -0.000146021 0
-0.102096 0.00804437 0
-0.0148589 -0.00774648 0
-0.133787 0.00258184 0
0.151148 0.00391964 0
-0.153466 0.00180877 0
-0.16195 0.00336779 0
-0.160392 0.000171667 0
-0.134224 -0.00232719 0
-0.149611 -0.00162434 0
0.161006 0.000314627 0
-0.0640609 -0.00729919 0
0.162143 0.000362834 0
0.132435 0.00539764 0
0.098209 0.00316813 0
0.00815485 0.00353991 0
0.148862 0.00228881 0
-0.151651 -0.00123708 0
-0.113679 0.00806602 0
-0.153681 0.00177142 0
-0.130814 0.00459065 0
106.392 153.902 0
0.101663 0.00337904 0
-0.15138 0.00192931 0
-0.157028 0.0022475 0
2.71983 3.72046 0
-0.152684 0.00118004 0
-0.00713397 -0.00270249 0
0.155678 3.56961e-05 0
-0.147352 -0.000915956 0
0.105174 -0.00074361 0
-0.140483 0.00339426 0
0.152679 0.000308093 0
0.148467 0.000212297 0
0.048828 0.00965003 0
0.156628 0.00225639 0
-0.136012 -0.00206393 0
0.118318 0.000220359 0
0.157774 -0.000631342 0
0.156438 0.000416184 0
-0.161157 0.00084579 0
-0.134337 0.00210536 0
0.160368 -0.000103793 0
0.152456 0.000189918 0
0.146845 -0.000497568 0
-0.0237345 0.00175842 0
0.122575 -0.00481884 0
0.119345 -0.00396152 0
0.122525 -0.00490795 0
0.14536 0.00423933 0
0.157519 -0.000709978 0
-0.0357444 -0.00474104 0
-0.156352 0.00311513 0
0.104247 -0.00797897 0
-0.0995959 0.00818473 0
-0.154178 0.0013126 0
-0.109551 -0.00698346 0
-0.1547 0.00195549 0
0.118675 0.00338919 0
0.151456 0.0014583 0
-0.0464436 -0.00392498 0
0.123096 -0.00335468 0
0.122371 0.0037614 0
0.150288 0.00208687 0
0.102733 -0.00312146 0
-0.151677 0.00160628 0
-0.0649687 -0.00171471 0
0.157099 0.000440193 0
0.10497 -5.75189e-05 0
-0.137703 -0.00060868 0
-0.149021 0.00150494 0
-0.154979 0.00152729 0
-0.0395779 0.00436067 0
0.120876 -0.00184104 0
0.136609 -0.00156258 0
0.138269 0.00197324 0
0.116155 0.00363356 0
-0.0632079 0.000777438 0
0.161719 -0.00128908 0
-0.148513 0.00173014 0
-0.0347719 -0.00168767 0
0.156492 0.00225763 0
-0.027806 -0.000754306 0
-0.119457 0.0065398 0
-0.148919 0.00149085 0
-0.0900067 -0.00364754 0
-0.151065 -0.000362743 0
-0.151773 -0.00199916 0
0.14991 0.000542191 0
-0.153444 0.00298174 0
-0.151089 0.00260047 0
0.154876 0.00263459 0
0.150928 0.00022334 0
0.116426 -0.00602627 0
0.162064 -0.000729308 0
0.160221 0.000740092 0
0.155531 -0.000833514 0
0.01762 0.0117351 0
0.158147 -0.000821892 0
0.127912 -0.00291687 0
-0.101676 -0.00642975 0
0.142294 0.00301768 0
-0.14012 0.00297521 0
0.149933 0.00124719 0
-0.124676 0.00502398 0
-0.133073 0.00256802 0
-0.1494 0.00201308 0
0.151913 0.00248383 0
-0.0993772 0.00776895 0
0.159745 0.00160715 0
0.138617 -0.00152346 0
-0.0309076 -0.0021474 0
0.161951 -0.00132803 0
-0.147525 -0.00255426 0
0.0211341 0.018539 0
0.0644163 -0.00197864 0
-0.13312 0.00463097 0
-0.0935046 -0.00332816 0
0.148444 0.000799268 0
-0.0649204 -0.00743061 0
0.139711 -0.000835077 0
-0.128637 0.00475177 0
-0.0877965 -0.00547508 0
-0.154909 0.00284584 0
-0.15284 0.00346883 0
0.153862 0.000466732 0
-0.156837 -3.80772e-06 0
-0.0179542 0.00854201 0
-0.120463 0.00502268 0
-0.156672 0.00191318 0
-0.14514 -0.00190241 0
0.160607 -0.000553775 0
0.0568075 0.00994163 0
-0.149027 0.00168716 0
0.161288 0.00100125 0
0.155003 0.000257697 0
-0.132122 0.00427056 0
-0.156302 0.000279006 0
-0.153843 -0.000967014 0
0.150911 0.00221673 0
0.0783587 0.00954415 0
-0.0232175 0.00626147 0
-0.159059 0.00221616 0
-0.136711 0.00278912 0
0.118214 -0.00612858 0
-0.120127 -0.00117759 0
-0.151887 0.00180218 0
0.093943 -0.000560486 0
0.158365 0.000552322 0
-0.139685 -0.00210746 0
-0.153771 0.00180827 0
-0.0882875 -0.0048064 0
0.0774861 0.00316574 0
0.138201 0.00215711 0
-0.144869 0.00322501 0
0.155109 0.000257171 0
0.159395 0.00158167 0
0.0914304 0.00534473 0
0.0954653 0.00222718 0
-0.144387 0.00246673 0
0.149675 -0.000561549 0
-0.0678584 -0.00304299 0
-0.139576 0.00364607 0
0.150011 0.000460116 0
-0.135276 0.00356959 0
0.132449 0.00399014 0
0.057523 0.00946545 0
0.083255 0.000682797 0
0.159407 0.000920709 0
-0.144336 0.00240061 0
0.0294478 -0.00259225 0
0.0149874 -0.00476861 0
-0.102747 0.00184415 0
-0.151883 0.000916685 0
-0.1494 0.00164209 0
-0.148576 -3.26524e-05 0
0.153743 0.000180942 0
0.152408 0.000257629 0
0.157036 0.000203168 0
-0.153313 -0.000599916 0
0.100782 0.00173159 0
0.0085344 0.00517088 0
-0.159922 0.00244339 0
-0.155427 0.00139737 0
0.149297 0.000419629 0
-0.148563 0.00167516 0
0.147913 0.00304874 0
-0.150885 -4.88269e-05 0
-0.146013 0.000467329 0
-0.0670104 -0.0081832 0
-0.153214 0.00145815 0
0.145672 -0.000275567 0
-0.129848 0.00463272 0
-0.146346 -0.000701484 0
-0.0576491 0.0081213 0
-0.152851 0.0017607 0
-0.155109 0.00197332 0
0.131441 -0.000622999 0
-0.0540508 0.00313102 0
0.153504 0.000210653 0
0.156845 -0.000541099 0
0.0998349 0.00585663 0
0.159094 0.0018335 0
0.151421 0.00295919 0
0.158441 0.00217835 0
-0.104341 0.00941853 0
-0.14349 0.0013008 0
-0.159338 0.000880597 0
0.162586 0.00091595 0
-0.0210555 0.00336128 0
0.152939 -0.000105349 0
0.149419 0.00183915 0
0.15743 0.00028123 0
0.0272888 0.00519406 0
-0.079826 0.010059 0
0.132436 0.0026102 0
-0.0179091 0.000694171 0
-0.0745134 0.00410427 0
-0.125088 0.00494196 0
0.153622 0.00313795 0
-0.110619 0.00608193 0
0.141857 -0.00149125 0
0.117002 -0.0012541 0
-0.159009 0.00291653 0
0.124539 -0.00505112 0
0.16104 -0.00141521 0
0.143958 -0.000591896 0
0.154096 0.0034185 0
-0.155115 0.00257106 0
-0.0334908 0.00627499 0
0.156862 0.00135598 0
0.156279 0.00020826 0
0.0720098 0.00997857 0
-0.148143 0.000338647 0
-0.145052 0.00245366 0
0.160809 0.000757878 0
-0.148124 -0.000622443 0
0.155381 0.00153344 0
0.156349 -0.000360256 0
0.0747624 -0.00835173 0
0.149543 0.00190412 0
-0.152292 0.00178939 0
-0.129983 0.000303327 0
-0.0871168 -0.000426056 0
0.0127973 -0.00238396 0
0.0189461 -0.0105317 0
-0.139652 0.00181719 0
0.0695519 -0.00933145 0
-0.0156457 0.0158553 0
-0.157374 0.00284341 0
-0.111991 0.00573712 0
-0.153534 0.00222417 0
-0.0630375 -0.00462049 0
0.156413 0.00321451 0
-0.108677 0.00637611 0
-0.155584 0.000493609 0
-22.0752 91.3112 0
0.155974 -0.00142462 0
0.155427 0.000149738 0
-0.126226 0.00593622 0
0.151327 0.00171717 0
0.143422 0.000182646 0
-202.741 -362.571 0
0.0478167 0.00612314 0
-0.153931 0.00194256 0
-0.127536 -0.000398999 0
0.154186 0.00192149 0
1.4697 -3.02582 0
0.145866 0.00246855 0
-0.150739 -0.00179079 0
-0.0957293 0.000645184 0
-0.153088 -0.000741919 0
-0.155958 0.00309731 0
0.153109 0.000184569 0
-0.158073 -8.92465e-06 0
-0.136956 0.00403955 0
0.119955 0.00535119 0
-0.149015 0.000558763 0
-0.123905 0.0059426 0
-0.13768 0.00367466 0
0.154577 0.00217986 0
0.139434 -0.00209421 0
-0.0912891 0.00779838 0
0.159124 -0.000213724 0
-0.15407 -0.00164092 0
-0.142793 -0.000837843 0
-0.155678 0.00101001 0
0.0139131 -0.0111922 0
-0.149945 -0.00152543 0
0.152842 0.00221635 0
-0.152517 0.00194614 0
-0.151929 0.0012883 0
-0.0368702 0.00630814 0
0.0998216 0.00578234 0
-0.0489452 0.0143867 0
0.0331189 0.00840654 0
-0.154078 0.00202664 0
-0.0273129 0.00194008 0
-0.154448 0.000156549 0
-0.155152 0.00263072 0
0.149235 -0.00163684 0
0.131151 0.00416103 0
-0.144885 0.00299544 0
0.138927 0.00246165 0
0.137635 0.00109348 0
-0.147946 0.00171098 0
-0.0812188 -0.002141 0
0.108768 -0.00599096 0
-0.148323 0.000847245 0
0.131826 -0.0028217 0
0.0606958 -0.00125892 0
-0.152078 0.000165311 0
0.14325 0.000345616 0
0.150675 -0.000306241 0
0.153277 -0.00120612 0
0.156064 -4.48669e-06 0
0.158596 0.000602317 0
0.150632 0.00324121 0
-0.153314 0.00159811 0
0.110791 0.00425989 0
-0.126257 -0.00137255 0
0.0726877 0.0107224 0
-0.144296 0.00158587 0
-0.0510333 -0.001562 0
-0.11932 0.00504068 0
0.0442766 -0.00476264 0
-0.156472 0.00203473 0
0.150626 0.000181813 0
-0.04154 0.011796 0
[...]
      <PointData Scalars="T">
        <DataArray type="Float32" Name="T" format="ascii" NumberOfComponents="1">
309.965
354.473
311.31
311.31
358.114
375.121
311.31
389.209
311.31
358.114
311.31
309.965
358.114
362.097
376.912
309.965
362.097
300.707
300.648
358.114
358.114
309.965
364.317
300.849
311.31
309.965
362.097
311.31
358.114
358.114
358.114
362.097
300.531
301.84
309.965
311.31
300.708
377.156
362.097
362.097
309.965
309.965
362.097
300.562
300.496
358.114
309.965
311.31
300.708
300.782
309.965
397.56
358.114
302.516
413.066
362.414
302.265
309.965
309.965
311.31
309.965
301.559
311.31
311.31
358.114
391.204
301.341
301.138
309.965
300.507
345.47
309.965
300.541
309.965
309.965
362.097
309.965
358.114
309.965
380.621
362.097
358.114
309.965
376.989
311.31
345.937
311.31
362.097
358.114
362.097
309.965
389.269
311.31
358.114
362.097
358.114
309.965
345.47
358.114
397.983
362.097
362.097
301.082
362.097
301.026
309.965
309.965
309.965
309.965
362.097
358.114
346.018
358.114
309.965
309.965
358.114
358.114
309.965
380.621
362.097
302.265
362.097
311.31
358.114
301.108
301.18
309.965
309.965
362.097
301.165
311.31
300.886
384.187
358.114
311.31
301.284
311.31
346.643
311.31
311.31
311.31
309.965
311.31
362.097
358.114
311.31
358.114
375.172
362.097
358.114
309.965
300.988
362.097
311.31
309.965
309.965
311.31
354.473
362.097
300.847
311.31
362.097
362.869
362.414
358.114
311.31
311.31
309.965
309.965
375.513
311.31
347.568
362.097
309.965
362.097
358.114
363.272
362.097
362.097
362.097
300.84
358.114
358.114
309.965
301.165
311.31
311.31
300.587
311.31
309.965
311.31
311.31
362.097
309.965
358.114
300.723
358.114
358.114
358.114
309.965
358.114
301.935
311.31
362.097
311.31
362.097
309.965
311.31
358.114
362.097
300.554
362.097
311.31
358.114
362.097
358.114
358.114
300.829
362.097
358.114
358.114
358.114
362.097
311.31
309.965
349.202
300.492
301.141
358.114
392.567
362.097
309.965
309.965
358.114
358.114
358.114
311.31
362.097
345.47
311.31
300.829
362.097
345.47
362.097
309.965
309.965
358.114
301.141
301.788
309.965
309.965
358.114
311.31
362.097
358.114
300.829
358.114
309.965
309.965
300.639
300.495
358.114
311.31
311.31
346.391
382.72
351.187
362.097
301.284
301.141
301.198
362.097
302.894
309.965
358.114
377.295
300.886
349.484
309.965
362.097
388.013
362.097
368.362
311.31
358.114
362.097
358.114
346.346
358.114
311.31
358.114
301.18
311.31
309.965
303.225
309.965
309.965
358.114
375.566
390.56
300.502
358.114
311.31
303.225
301.134
309.965
358.114
309.965
374.163
358.114
358.114
309.965
358.114
311.31
311.31
358.114
311.31
311.31
311.31
309.965
358.114
358.114
300.814
301.198
309.965
388.289
358.114
300.579
362.097
301.391
311.31
311.31
303.59
345.746
389.269
362.097
311.31
311.31
345.349
311.31
358.114
358.114
358.114
358.114
362.097
309.965
358.114
389.556
358.114
311.31
301.533
358.114
302.813
301.284
362.097
309.965
358.114
362.097
309.965
311.31
309.965
362.097
379.289
362.097
358.114
301.284
362.097
358.114
309.965
386.043
358.114
358.114
309.965
311.31
358.114
311.31
362.097
362.097
389.596
311.31
362.097
309.965
358.114
377.213
358.114
309.965
358.114
309.965
358.114
358.114
399.23
358.114
311.31
309.965
358.114
309.965
300.708
348.132
362.097
311.31
384.187
311.31
311.31
398.759
301.045
311.31
311.31
311.31
300.753
309.965
355.692
309.965
362.097
309.965
357.413
362.097
358.114
311.31
358.114
301.284
358.114
309.965
345.937
300.769
301.048
309.965
311.31
345.631
362.869
302.371
358.114
309.965
362.414
309.965
392.459
362.097
358.114
358.114
303.053
300.707
358.114
311.31
374.669
394.284
362.097
358.114
362.097
309.965
311.31
362.097
301.142
362.097
362.097
311.31
311.31
362.097
358.114
376.12
362.097
300.517
362.097
300.612
358.114
362.097
301.048
309.965
362.097
362.097
358.114
358.114
309.965
375.96
311.31
301.284
309.965
358.114
358.114
358.114
300.839
309.965
381.139
362.097
362.097
362.786
300.69
309.965
301.134
300.477
358.114
309.965
309.965
300.496
350.422
309.965
311.31
392.567
311.31
349.484
358.114
358.114
362.097
394.284
362.097
362.097
362.097
311.31
311.31
311.31
309.965
311.31
309.965
309.965
362.097
309.965
359.026
311.31
309.965
358.114
309.965
358.114
380.621
358.114
381.139
309.965
311.31
309.965
301.601
311.31
311.31
358.114
309.965
309.965
377.218
309.965
375.96
345.937
362.097
311.31
302.431
358.114
358.114
362.097
397.56
362.097
309.965
309.965
300.814
309.965
362.097
358.114
309.965
358.114
300.546
309.965
362.097
345.47
311.31
358.114
303.023
309.965
362.097
309.965
362.097
301.972
391.648
358.114
300.708
311.31
362.097
362.097
384.325
353.565
358.114
309.965
311.31
301.84
300.502
309.965
362.097
379.289
389.107
362.097
346.799
303.477
311.31
358.114
309.965
398.347
300.496
309.965
300.639
377.156
309.965
362.097
389.068
309.965
311.31
362.097
309.965
346.799
311.31
311.31
309.965
300.955
362.097
362.097
358.114
392.387
309.965
362.097
311.31
396.542
362.097
309.965
300.886
362.097
362.097
358.114
358.114
311.31
311.31
358.114
387.239
362.097
309.965
311.31
347.568
358.114
311.31
311.31
309.965
309.965
363.272
362.097
362.097
362.097
362.097
309.965
358.114
309.965
301.935
362.097
358.114
300.867
311.31
362.097
358.114
311.31
362.097
362.097
351.187
311.31
362.097
371.515
309.965
358.114
360.542
311.31
309.965
348.437
309.965
311.31
375.033
309.965
301.134
358.114
358.114
311.31
301.065
300.867
309.965
309.965
389.107
388.289
358.114
358.114
309.965
347.54
362.097
300.522
303.536
358.114
371.515
358.114
301.341
309.965
309.965
309.965
358.114
301.082
311.31
381.284
358.114
301.935
301.389
309.965
309.965
301.176
358.114
309.965
302.779
311.31
345.631
309.965
358.114
311.31
303.011
311.31
309.965
311.31
358.114
300.801
383.736
309.965
349.202
358.114
358.114
311.31
362.097
309.965
346.018
300.886
309.965
362.097
311.31
382.2
397.773
389.392
371.515
358.114
358.114
301.165
311.31
311.31
300.92
311.31
379.289
309.965
347.103
388.947
311.31
311.31
352.833
300.517
358.114
309.965
358.114
358.114
358.114
362.097
362.097
300.531
358.114
309.965
358.114
362.097
358.114
362.097
362.097
300.835
309.965
311.31
358.114
362.097
358.114
375.172
362.097
358.114
362.097
309.965
348.132
362.097
311.31
311.31
301.138
376.146
358.114
362.097
309.965
399.23
300.694
358.114
362.097
397.897
309.965
300.886
309.965
300.724
311.31
358.114
358.114
311.31
358.114
309.965
377.295
309.965
362.869
362.097
302.691
345.937
300.731
358.114
358.114
311.31
300.708
362.097
309.965
311.31
300.723
309.965
358.114
362.097
388.92
309.965
358.114
300.734
309.965
311.31
311.31
391.183
358.114
300.723
358.114
358.114
311.31
300.886
303.225
301.671
358.114
362.097
309.965
358.114
300.988
309.965
346.643
358.114
302.185
384.187
311.31
301.14
346.799
345.349
311.31
300.522
358.114
362.097
362.097
309.965
300.731
378.73
358.114
362.311
378.73
362.097
311.31
358.114
302.102
376.912
311.31
300.955
376.865
301.898
371.515
309.965
301.456
358.114
362.097
302.282
311.31
309.965
309.965
309.965
309.965
345.538
309.965
311.31
388.947
311.31
309.965
358.114
300.839
311.31
309.965
358.114
358.114
362.097
311.31
362.097
301.456
362.097
377.156
358.114
309.965
362.097
388.096
362.097
311.31
392.459
358.114
311.31
301.318
362.097
362.097
311.31
358.114
311.31
311.31
397.56
309.965
362.097
300.874
311.31
309.965
311.31
309.965
309.965
358.114
300.988
311.31
301.724
358.114
301.284
362.097
358.114
362.097
311.31
309.965
354.473
362.097
358.114
311.31
358.114
358.114
300.829
301.141
309.965
303.59
349.743
371.515
311.31
358.114
309.965
358.114
362.097
300.727
362.097
311.31
358.114
362.097
358.114
358.114
358.114
378.73
362.097
358.114
358.114
309.965
383.372
311.31
311.31
311.31
311.31
309.965
358.114
300.847
347.54
309.965
345.746
309.965
300.85
362.097
309.965
358.114
311.31
309.965
311.31
396.542
301.786
358.114
300.513
362.097
362.097
309.965
362.097
358.114
358.114
362.097
311.31
309.965
309.965
309.965
362.097
311.31
396.244
311.31
300.612
309.965
309.965
302.656
311.31
301.456
362.097
309.965
302.779
362.097
358.114
311.31
358.114
300.496
358.114
362.097
351.041
375.96
362.097
348.132
301.458
362.097
309.965
377.295
311.31
358.114
309.965
358.114
358.114
309.965
309.965
358.114
311.31
309.965
300.796
300.546
362.097
358.114
387.239
388.853
311.31
358.114
300.683
358.114
358.114
311.31
311.31
358.114
309.965
311.31
300.782
311.31
358.114
300.846
309.965
358.114
358.114
358.114
362.097
358.114
311.31
346.643
311.31
362.097
300.763
311.31
309.965
347.568
362.097
362.097
358.114
311.31
309.965
362.097
311.31
300.692
362.097
362.097
311.31
358.114
300.713
311.31
309.965
362.097
358.114
358.114
358.114
309.965
388.848
303.154
375.172
358.114
301.14
309.965
309.965
311.31
303.536
388.013
383.711
362.097
349.202
301.138
301.687
309.965
309.965
309.965
309.965
362.097
358.114
358.114
358.114
387.769
348.132
350.422
300.665
311.31
311.31
301.108
311.31
349.484
311.31
358.114
300.541
362.097
358.114
309.965
413.066
384.525
301.235
389.596
311.31
311.31
311.31
311.31
309.965
309.965
311.31
309.965
362.097
300.541
375.172
309.965
309.965
300.811
397.177
311.31
362.097
309.965
309.965
309.965
309.965
358.114
311.31
358.114
309.965
300.829
311.31
387.749
387.749
384.187
311.31
311.31
362.097
309.965
362.311
301.788
301.456
362.097
358.114
384.525
311.31
309.965
358.114
301.198
358.114
301.858
358.114
346.346
382.72
358.114
311.31
311.31
362.097
358.114
358.114
358.114
311.31
362.097
309.965
358.114
309.965
302.394
358.114
357.413
309.965
358.114
300.92
311.31
311.31
358.114
300.554
311.31
362.097
358.114
311.31
358.114
301.14
358.114
345.349
301.152
362.097
362.097
300.848
300.842
309.965
311.31
309.965
399.948
301.104
309.965
358.114
358.114
311.31
349.484
309.965
300.496
377.462
354.473
309.965
388.904
376.989
300.692
311.31
389.244
376.912
302.102
358.114
383.372
362.097
397.983
358.114
311.31
311.31
358.114
358.114
311.31
362.097
311.31
309.965
309.965
358.114
358.114
311.31
376.989
309.965
358.114
309.965
311.31
375.172
311.31
311.31
362.097
348.864
362.097
362.097
346.643
358.114
358.114
358.114
309.965
300.835
311.31
358.114
311.31
358.114
351.865
300.857
347.952
345.47
309.965
351.865
362.097
311.31
362.097
362.097
309.965
358.114
309.965
300.964
311.31
311.31
358.114
302.282
300.728
350.533
345.349
309.965
358.114
358.114
300.612
301.84
301.048
362.097
301.198
358.114
300.724
311.31
383.764
348.132
349.484
311.31
300.829
358.114
358.114
358.114
362.097
300.935
362.097
311.31
362.097
362.097
300.811
309.965
311.31
362.097
309.965
311.31
309.965
377.462
301.84
384.091
387.188
358.114
354.473
380.119
362.097
362.097
309.965
302.951
362.097
358.114
358.114
311.31
358.114
358.114
345.746
362.097
362.097
311.31
311.31
309.965
346.018
309.965
309.965
301.152
362.097
311.31
300.757
309.965
300.522
309.965
358.114
382.2
388.397
358.114
374.39
301.389
362.097
362.097
309.965
358.114
362.097
358.114
375.513
364.317
345.349
389.644
311.31
362.097
362.097
358.114
362.097
358.114
311.31
362.097
358.114
311.31
311.31
311.31
362.097
362.097
358.114
309.965
348.132
397.177
300.736
358.114
345.538
358.114
309.965
358.114
309.965
309.965
311.31
362.097
311.31
300.731
362.097
389.571
311.31
309.965
362.097
358.114
358.114
311.31
358.114
398.759
358.114
309.965
309.965
311.31
309.965
362.097
358.114
348.132
311.31
309.965
358.114
309.965
309.965
387.239
362.097
362.097
309.965
309.965
309.965
362.869
309.965
388.158
309.965
358.114
358.114
376.162
302.691
300.886
311.31
311.31
362.097
311.31
311.31
377.496
352.833
309.965
309.965
300.765
358.114
311.31
347.568
311.31
309.965
311.31
300.669
389.107
349.743
389.209
309.965
311.31
311.31
301.048
358.114
309.965
346.391
301.067
300.845
309.965
362.097
300.683
352.833
309.965
309.965
311.31
388.289
311.31
311.31
311.31
311.31
309.965
382.469
309.965
311.31
358.114
362.097
389.556
374.53
358.114
358.114
374.53
358.114
311.31
301.147
362.097
309.965
358.114
377.432
364.317
311.31
362.097
362.097
301.935
311.31
309.965
309.965
309.965
376.162
301.858
309.965
311.31
309.965
358.114
300.568
380.621
362.097
362.097
311.31
362.097
358.114
358.114
358.114
358.114
358.114
383.56
358.114
301.458
303.154
311.31
357.413
311.31
362.414
311.31
309.965
358.114
300.648
300.765
309.965
309.965
311.31
376.865
311.31
300.513
358.114
309.965
375.534
309.965
358.114
311.31
300.829
358.114
358.114
362.097
358.114
362.097
358.114
311.31
311.31
311.31
362.097
309.965
358.114
301.141
362.097
309.965
349.484
358.114
362.097
349.743
300.845
311.31
362.097
311.31
309.965
362.097
358.114
300.829
309.965
358.114
309.965
309.965
311.31
300.867
311.31
362.097
358.114
362.097
362.097
309.965
311.31
309.965
300.694
311.31
358.114
388.853
388.554
311.31
300.504
301.082
311.31
358.114
311.31
309.965
303.298
309.965
300.848
309.965
358.114
358.114
358.114
309.965
357.413
358.114
301.005
300.502
300.842
300.479
358.114
309.965
358.114
309.965
309.965
358.114
311.31
362.097
362.097
362.097
301.14
362.097
362.097
376.301
362.097
391.129
345.47
362.097
362.097
377.462
311.31
358.114
358.114
309.965
309.965
311.31
301.165
309.965
355.692
358.114
309.965
362.097
362.097
309.965
377.156
362.097
300.814
309.965
301.724
358.114
358.114
311.31
358.114
358.114
311.31
395.831
300.669
300.744
311.31
301.152
358.114
358.114
358.114
311.31
355.692
358.114
358.114
358.114
362.097
358.114
309.965
362.097
358.114
351.865
309.965
358.114
302.171
358.114
375.513
309.965
348.437
362.097
301.724
301.141
396.972
387.822
388.397
300.839
376.552
349.484
381.112
362.097
358.114
362.097
362.097
309.965
311.31
362.097
358.114
311.31
303.023
311.31
362.097
311.31
311.31
309.965
309.965
358.114
362.097
358.114
357.413
300.833
371.515
309.965
364.317
362.097
362.097
311.31
300.468
362.097
358.114
301.284
376.831
309.965
311.31
309.965
311.31
311.31
309.965
413.066
362.097
398.776
358.114
311.31
300.857
362.097
300.796
379.28
348.721
358.114
362.097
358.114
301.935
302.431
354.473
362.097
301.032
309.965
351.041
311.31
358.114
301.026
311.31
301.134
358.114
309.965
311.31
311.31
309.965
400.218
300.468
362.097
362.097
311.31
301.082
399.23
376.146
309.965
311.31
311.31
362.097
362.097
348.437
301.788
302.691
362.097
309.965
311.31
385.052
311.31
309.965
358.114
362.097
389.392
358.114
358.114
381.16
358.114
358.114
301.559
362.097
300.491
362.097
362.097
309.965
376.162
358.114
358.114
362.097
311.31
358.114
362.097
301.142
358.114
380.613
346.346
309.965
301.14
302.992
302.265
362.097
362.097
349.202
391.129
368.362
358.114
362.097
348.864
363.272
311.31
309.965
309.965
300.736
300.531
362.097
387.188
309.965
309.965
362.097
362.097
351.865
311.31
376.162
358.114
358.114
311.31
358.114
311.31
309.965
300.522
311.31
345.746
309.965
358.114
358.114
362.097
309.965
358.114
309.965
300.707
300.832
300.829
358.114
362.097
300.665
300.848
300.694
309.965
309.965
301.389
362.097
301.84
311.31
358.114
388.904
346.643
311.31
301.048
311.31
364.317
376.162
358.114
309.965
358.114
309.965
375.895
300.76
311.31
311.31
301.082
358.114
309.965
362.097
300.736
300.835
309.965
358.114
362.097
362.097
358.114
362.097
362.097
300.801
358.114
387.822
311.31
311.31
301.032
345.47
358.114
362.097
362.097
309.965
358.114
388.22
362.097
302.951
358.114
390.21
301.198
348.864
309.965
362.097
311.31
362.869
362.097
309.965
358.114
311.31
396.244
358.114
311.31
309.965
362.097
349.202
358.114
301.235
358.114
362.097
301.152
389.209
309.965
309.965
388.397
309.965
311.31
311.31
311.31
300.732
399.224
311.31
309.965
384.187
309.965
358.114
362.097
362.097
358.114
362.097
311.31
399.224
309.965
309.965
309.965
311.31
309.965
311.31
311.31
309.965
362.097
301.318
309.965
362.097
311.31
311.31
302.394
300.507
362.097
311.31
301.533
362.097
309.965
362.097
362.097
311.31
345.631
358.114
302.265
358.114
301.142
300.732
309.965
301.134
311.31
311.31
311.31
300.867
300.513
348.721
362.097
389.068
302.691
300.665
358.114
311.31
301.972
388.947
311.31
309.965
311.31
301.84
311.31
350.422
309.965
301.389
358.114
311.31
362.097
309.965
301.134
309.965
358.114
362.097
309.965
358.114
358.114
311.31
311.31
311.31
358.114
309.965
300.599
383.764
352.833
311.31
311.31
309.965
362.097
362.097
362.097
301.18
309.965
311.31
389.289
358.114
311.31
300.652
309.965
309.965
311.31
358.114
309.965
362.097
309.965
358.114
358.114
301.142
309.965
358.114
374.163
309.965
362.097
383.648
381.632
381.284
358.114
351.865
362.097
311.31
311.31
391.144
301.687
389.543
309.965
311.31
362.097
301.147
311.31
358.114
311.31
379.462
375.895
358.114
347.54
309.965
309.965
311.31
362.097
311.31
362.097
311.31
311.31
362.869
362.097
345.746
300.624
300.731
309.965
300.782
362.097
311.31
358.114
301.389
358.114
301.134
345.746
358.114
309.965
311.31
362.097
300.829
358.114
302.656
358.114
362.097
362.097
362.097
311.31
358.114
362.097
379.462
362.097
362.097
311.31
358.114
311.31
311.31
309.965
311.31
309.965
311.31
358.114
362.097
377.462
309.965
309.965
351.187
311.31
300.848
301.141
311.31
358.114
358.114
309.965
309.965
311.31
300.886
384.187
300.496
362.097
364.317
358.114
311.31
358.114
300.669
362.097
311.31
358.114
362.097
309.965
358.114
309.965
311.31
309.965
389.834
389.107
300.763
311.31
311.31
311.31
309.965
390.367
309.965
300.782
358.114
301.041
309.965
311.31
396.542
309.965
309.965
398.998
375.566
382.72
300.708
311.31
368.362
358.114
388.397
362.097
301.284
311.31
358.114
362.097
301.138
362.097
358.114
358.114
311.31
309.965
362.097
384.187
362.097
311.31
362.097
362.097
301.858
309.965
309.965
309.965
358.114
362.097
362.097
362.097
309.965
311.31
309.965
301.026
358.114
345.538
358.114
347.54
362.097
348.437
370.678
300.595
301.067
311.31
311.31
362.097
362.097
361.51
358.114
358.114
311.31
385.487
309.965
309.965
311.31
362.097
362.097
301.786
309.965
311.31
397.177
309.965
349.484
358.114
300.955
301.082
311.31
311.31
309.965
309.965
309.965
309.965
311.31
311.31
377.432
311.31
358.114
309.965
358.114
358.114
376.162
311.31
301.18
388.574
309.965
358.114
362.097
349.484
362.097
311.31
358.114
376.865
301.898
300.491
399.714
358.114
358.114
380.621
311.31
311.31
311.31
391.129
300.541
300.639
311.31
388.574
388.554
301.082
300.902
309.965
301.687
301.082
309.965
362.097
301.18
300.479
301.687
358.114
358.114
347.103
358.114
358.114
311.31
389.209
385.052
358.114
358.114
358.114
300.832
300.744
311.31
358.114
301.235
311.31
311.31
311.31
309.965
358.114
345.631
362.097
311.31
370.678
311.31
362.097
311.31
378.73
379.462
358.114
309.965
362.097
362.097
309.965
362.097
300.724
358.114
300.744
309.965
309.965
389.834
309.965
350.422
362.097
311.31
358.114
311.31
311.31
309.965
309.965
309.965
358.114
309.965
382.2
362.097
300.519
362.097
362.097
382.2
311.31
358.114
376.301
358.114
301.165
362.097
347.54
309.965
311.31
311.31
362.097
353.565
300.479
354.473
358.114
309.965
362.097
358.114
362.097
358.114
397.773
358.114
349.202
300.732
303.104
345.746
362.097
311.31
311.31
362.097
358.114
309.965
300.665
309.965
358.114
358.114
311.31
362.097
346.799
362.097
300.531
311.31
311.31
300.832
309.965
302.185
309.965
311.31
358.114
389.269
381.632
376.12
362.097
358.114
309.965
358.114
309.965
300.665
358.114
311.31
309.965
362.097
362.097
300.731
358.114
358.114
309.965
345.746
377.432
358.114
358.114
362.097
358.114
362.097
358.114
358.114
309.965
362.097
362.097
358.114
362.097
309.965
300.746
309.965
309.965
358.114
362.097
311.31
358.114
358.114
391.183
301.284
311.31
358.114
398.347
309.965
311.31
362.097
358.114
362.097
362.097
358.114
311.31
358.114
362.097
309.965
301.458
358.114
362.097
311.31
311.31
347.952
362.097
351.187
358.114
389.835
311.31
309.965
309.965
309.965
309.965
358.114
311.31
311.31
303.011
358.114
362.097
347.952
362.097
309.965
311.31
301.041
301.235
358.114
358.114
358.114
311.31
358.114
300.506
362.097
311.31
358.114
303.59
300.867
358.114
390.282
376.146
311.31
358.114
358.114
362.097
311.31
346.018
311.31
358.114
388.554
309.965
301.671
362.097
349.484
311.31
309.965
309.965
301.032
311.31
345.937
309.965
300.955
347.568
358.114
311.31
301.041
349.743
358.114
381.112
311.31
311.31
347.54
301.456
309.965
358.114
309.965
300.708
388.158
362.097
358.114
309.965
347.952
362.097
311.31