<?xml version="1.0"?>
<VTKFile type="ImageData" version="0.1" byte_order="LittleEndian">
  <ImageData Origin="0 0 0" Spacing="1e-05 1e-05 1e-05" WholeExtent="0 191 0 191 0 0">
    <Piece Extent="0 191 0 191 0 0">
      <CellData Scalars="T">
        <DataArray type="Float32" Name="T" format="ascii" NumberOfComponents="1">
402.83
15000
14999
14997.2
14994.5
14990.2
14983.8
14974.6
14961.6
14943.9
14919.9
14888.2
14847
14794.2
14727.6
14645
14543.8
14421.4
14275.6
14103.8
13904
13674.5
13413.8
13121.3
12796.6
12440.2
12053.3
11637.8
11196.2
10731.7
10248.1
9749.74
9241.27
8727.63
8213.85
7704.99
7205.91
6721.22
6255.14
5811.41
5393.2
5003.08
4643.01
4314.28
4017.57
3752.97
3520.02
3317.79
3144.95
2999.81
2880.44
2784.73
2710.49
2655.46
2617.45
2594.33
2584.12
2584.99
2595.33
2613.7
2638.92
2669.97
2706.06
2746.58
2791.05
2839.15
2890.63
2945.33
3003.13
3063.93
3127.62
3194.11
3263.26
3334.93
3408.97
3485.2
3563.45
3643.55
3725.35
3808.68
3893.38
3979.3
4066.24
4153.95
4242.14
4330.43
4418.38
4505.43
4590.98
4674.35
4754.85
4831.79
4904.5
4972.39
5034.98
5091.87
5142.8
5187.64
5226.35
5258.98
5285.68
5306.61
5322.02
5332.15
5337.3
5337.78
5333.95
5326.23
5315.07
5301
5284.56
5266.34
5246.89
5226.72
5206.25
5185.79
5165.44
5145.16
5124.69
5103.58
5081.22
5056.88
5029.76
4999.03
4963.95
4923.86
4878.29
4826.99
4769.95
4707.42
4639.93
4568.22
4493.24
4416.11
4338.03
4260.28
4184.11
4110.7
4041.13
3976.34
3917.08
3863.94
3817.28
3777.34
3744.14
3717.62
3697.56
3683.7
3675.72
3673.27
3676.01
3683.6
3695.74
3712.12
3732.47
3756.49
3783.89
3814.31
3847.36
3882.56
3919.37
3957.14
3995.14
4032.6
4068.68
4102.52
4133.29
4160.21
4182.6
4199.89
4211.71
4217.83
4218.26
4213.17
4202.94
4188.1
4169.32
4147.32
4122.85
4096.56
4068.87
4039.81
4008.66
3973.3
3929.14
3866.93
3768.62
3599.39
3292.03
2715.08
1603.45
311.488
552.403
15000
14999
14997.3
14994.5
14990.2
14983.8
14974.6
14961.7
14944
14920
14888.4
14847.2
14794.5
14728
14645.5
14544.4
14422.2
14276.4
14104.8
13905.2
13675.8
13415.3
13122.9
12798.4
12442.2
12055.4
11639.9
11198.3
10733.8
10250.2
9751.68
9243.04
8729.18
8215.14
7705.96
7206.53
6721.46
6254.96
5810.79
5392.13
5001.56
4641.03
4311.84
4014.68
3749.65
3516.29
3313.67
3140.46
2994.99
2875.32
2779.35
2704.88
2649.66
2611.49
2588.25
2577.95
2578.77
2589.07
2607.44
2632.65
2663.71
2699.82
2740.35
2784.82
2832.91
2884.36
2939.01
2996.74
3057.45
3121.03
3187.4
3256.42
3327.95
3401.84
3477.93
3556.05
3636.04
3717.74
3800.99
3885.65
3971.54
4058.48
4146.23
4234.49
4322.88
4410.96
4498.18
4583.93
4667.54
4748.31
4825.55
4898.58
4966.82
5029.76
5087.02
5138.32
5183.51
5222.57
5255.53
5282.53
5303.75
5319.4
5329.75
5335.08
5335.71
5332.01
5324.38
5313.28
5299.24
5282.8
5264.54
5245.02
5224.76
5204.18
5183.57
5163.06
5142.6
5121.94
5100.63
5078.08
5053.55
5026.25
4995.37
4960.15
4919.95
4874.3
4822.95
4765.9
4703.38
4635.93
4564.27
4489.37
4412.33
4334.36
4256.71
4180.64
4107.33
4037.86
3973.15
3913.97
3860.89
3814.3
3774.4
3741.25
3714.77
3694.75
3680.93
3672.99
3670.59
3673.38
3681.03
3693.23
3709.68
3730.09
3754.17
3781.61
3812.06
3845.13
3880.32
3917.09
3954.79
3992.7
4030.04
4065.96
4099.62
4130.19
4156.9
4179.07
4196.15
4207.76
4213.7
4213.96
4208.73
4198.4
4183.5
4164.68
4142.69
4118.25
4092.01
4064.4
4035.43
4004.38
3969.15
3925.15
3863.22
3765.53
3598.03
3296.08
2737.36
1690.2
306.541
551.024
15000
14999
14997.3
14994.5
14990.2
14983.9
14974.7
14961.8
14944.1
14920.3
14888.7
14847.7
14795.1
14728.8
14646.5
14545.6
14423.6
14278.2
14106.9
13907.6
13678.5
13418.4
13126.3
12802.1
12446.1
12059.5
11644.2
11202.7
10738.1
10254.3
9755.64
9246.68
8732.39
8217.83
7708.05
7207.93
6722.1
6254.79
5809.75
5390.2
4998.71
4637.26
4307.16
4009.1
3743.2
3509.01
3305.61
3131.67
2985.53
2865.25
2768.74
2693.81
2638.2
2599.71
2576.22
2565.74
2566.43
2576.66
2594.99
2620.2
2651.28
2687.41
2727.95
2772.42
2820.48
2871.87
2926.42
2984.01
3044.54
3107.91
3174.03
3242.78
3314.03
3387.64
3463.46
3541.32
3621.08
3702.58
3785.68
3870.23
3956.08
4043.02
4130.83
4219.22
4307.81
4396.15
4483.7
4569.85
4653.93
4735.23
4813.04
4886.71
4955.63
5019.27
5077.25
5129.27
5175.18
5214.93
5248.54
5276.15
5297.92
5314.07
5324.86
5330.56
5331.5
5328.04
5320.59
5309.62
5295.63
5279.19
5260.87
5241.23
5220.78
5199.97
5179.08
5158.24
5137.43
5116.38
5094.68
5071.74
5046.84
5019.19
4988
4952.51
4912.1
4866.3
4814.85
4757.76
4695.27
4627.89
4556.35
4481.61
4404.74
4326.97
4249.53
4173.67
4100.57
4031.28
3966.75
3907.72
3854.78
3808.3
3768.5
3735.45
3709.04
3689.1
3675.37
3667.51
3665.21
3668.1
3675.87
3688.19
3704.76
3725.29
3749.48
3777.02
3807.53
3840.62
3875.79
3912.48
3950.05
3987.76
4024.84
4060.45
4093.76
4123.94
4150.23
4171.96
4188.62
4199.82
4205.39
4205.33
4199.83
4189.3
4174.27
4155.39
4133.41
4109.03
4082.9
4055.44
4026.66
3995.81
3960.81
3917.12
3855.63
3758.77
3593.05
3294.99
2744.82
1719.95
306.502
549.77
15000
14999
14997.3
14994.5
14990.3
14983.9
14974.8
14962
14944.4
14920.7
14889.2
14848.3
14796
14729.9
14647.9
14547.3
14425.8
14280.8
14109.9
13911.1
13682.6
13422.9
13131.3
12807.6
12452
12065.7
11650.6
11209.2
10744.7
10260.7
9761.74
9252.34
8737.46
8222.16
7711.5
7210.38
6723.44
6254.93
5808.63
5387.75
4994.91
4632.08
4300.62
4001.22
3734.01
3498.57
3293.99
3118.94
2971.77
2850.57
2753.24
2677.58
2621.36
2582.37
2558.48
2547.7
2548.18
2558.27
2576.53
2601.72
2632.8
2668.94
2709.49
2753.95
2801.96
2853.25
2907.66
2965.04
3025.3
3088.36
3154.11
3222.47
3293.31
3366.5
3441.9
3519.38
3598.79
3680
3762.86
3847.25
3933
4019.94
4107.84
4196.41
4285.28
4373.99
4462.02
4548.74
4633.49
4715.56
4794.23
4868.83
4938.73
5003.42
5062.45
5115.54
5162.5
5203.26
5237.84
5266.35
5288.95
5305.84
5317.28
5323.55
5324.96
5321.87
5314.71
5303.92
5290.03
5273.59
5255.18
5235.37
5214.67
5193.51
5172.2
5150.89
5129.54
5107.94
5085.66
5062.14
5036.68
5008.51
4976.85
4940.97
4900.25
4854.21
4802.63
4745.49
4683.03
4615.76
4544.4
4469.89
4393.3
4315.82
4238.7
4163.15
4090.35
4021.35
3957.08
3898.29
3845.55
3799.25
3759.61
3726.69
3700.41
3680.6
3666.98
3659.26
3657.1
3660.15
3668.08
3680.58
3697.33
3718.03
3742.38
3770.03
3800.63
3833.74
3868.87
3905.44
3942.79
3980.21
4016.91
4052.06
4084.83
4114.42
4140.08
4161.19
4177.21
4187.82
4192.84
4192.3
4186.43
4175.6
4160.39
4141.43
4119.46
4095.18
4069.22
4042
4013.49
3982.94
3948.28
3904.97
3844.01
3747.99
3583.73
3288.27
2742.03
1716.32
306.467
546.76
15000
14999
14997.3
14994.5
14990.3
14984
14975
14962.2
14944.7
14921.1
14889.9
14849.2
14797.1
14731.4
14649.7
14549.6
14428.6
14284.1
14113.9
13915.7
13687.9
13428.9
13138
12814.8
12459.8
12074
11659.3
11218
10753.5
10269.5
9770.15
9260.22
8744.62
8228.4
7716.63
7214.24
6725.88
6255.83
5807.87
5385.26
4990.64
4626.01
4292.74
3991.56
3722.61
3485.49
3279.31
3102.76
2954.21
2831.74
2733.28
2656.63
2599.56
2559.86
2535.4
2524.17
2524.32
2534.19
2552.31
2577.43
2608.48
2644.62
2685.16
2729.58
2777.51
2828.67
2882.86
2939.97
2999.88
3062.52
3127.81
3195.64
3265.94
3338.58
3413.44
3490.41
3569.36
3650.16
3732.71
3816.86
3902.48
3989.4
4077.39
4166.17
4255.37
4344.55
4433.17
4520.63
4606.24
4689.29
4769.05
4844.85
4916.03
4982.05
5042.46
5096.93
5145.26
5187.35
5223.21
5252.9
5276.59
5294.47
5306.79
5313.8
5315.85
5313.27
5306.49
5295.97
5282.22
5265.81
5247.3
5227.27
5206.23
5184.63
5162.79
5140.85
5118.82
5096.48
5073.44
5049.16
5022.97
4994.12
4961.86
4925.46
4884.32
4837.98
4786.22
4729.01
4666.6
4599.47
4528.35
4454.14
4377.91
4300.84
4224.13
4149
4076.61
4008
3944.08
3885.61
3833.15
3787.1
3747.67
3714.94
3688.84
3669.19
3655.74
3648.19
3646.22
3649.47
3657.62
3670.34
3687.32
3708.24
3732.77
3760.57
3791.26
3824.39
3859.44
3895.83
3932.89
3969.91
4006.09
4040.62
4072.68
4101.5
4126.34
4146.61
4161.82
4171.65
4175.96
4174.82
4168.45
4157.26
4141.81
4122.76
4100.82
4076.69
4050.97
4024.05
3995.9
3965.75
3931.51
3888.67
3828.28
3733.07
3570.03
3276.29
2731.39
1701.68
306.471
544.773
15000
14999
14997.3
14994.6
14990.4
14984.2
14975.2
14962.5
14945.1
14921.7
14890.6
14850.2
14798.5
14733.2
14652
14552.4
14432
14288.2
14118.7
13921.4
13694.3
13436.2
13146.1
12823.8
12469.5
12084.3
11670
11229.1
10764.8
10280.6
9780.99
9270.5
8754.09
8236.83
7723.79
7219.91
6729.86
6257.96
5808.01
5383.3
4986.51
4619.66
4284.16
3980.76
3709.64
3470.42
3262.23
3083.78
2933.46
2809.38
2709.45
2631.51
2573.31
2532.66
2507.42
2495.57
2495.26
2504.79
2522.68
2547.65
2578.62
2614.69
2655.18
2699.53
2747.33
2798.31
2852.25
2909.01
2968.49
3030.62
3095.33
3162.54
3232.17
3304.13
3378.33
3454.66
3533.03
3613.33
3695.45
3779.3
3864.73
3951.58
4039.65
4128.65
4218.22
4307.93
4397.25
4485.55
4572.17
4656.38
4737.45
4814.67
4887.38
4955.01
5017.08
5073.23
5123.23
5166.94
5204.35
5235.51
5260.55
5279.65
5293.06
5301.02
5303.87
5301.95
5295.67
5285.5
5271.96
5255.6
5237
5216.72
5195.29
5173.17
5150.67
5127.99
5105.12
5081.88
5057.92
5032.71
5005.63
4975.95
4942.93
4905.9
4864.25
4817.54
4765.55
4708.26
4645.91
4578.97
4508.14
4434.31
4358.53
4281.96
4205.77
4131.17
4059.29
3991.17
3927.7
3869.63
3817.53
3771.8
3732.65
3700.17
3674.29
3654.85
3641.62
3634.29
3632.54
3636.04
3644.45
3657.43
3674.67
3695.83
3720.58
3748.54
3779.31
3812.43
3847.36
3883.5
3920.19
3956.69
3992.22
4025.97
4057.16
4085.02
4108.86
4128.11
4142.32
4151.21
4154.67
4152.8
4145.85
4134.24
4118.53
4099.38
4077.5
4053.56
4028.14
4001.61
3973.91
3944.24
3910.5
3868.2
3808.44
3714.03
3552.19
3260.52
2721.17
1717.55
306.643
544.109
15000
14999
14997.3
14994.6
14990.5
14984.3
14975.4
14962.8
14945.6
14922.3
14891.5
14851.4
14800
14735.1
14654.5
14555.5
14435.8
14292.8
14124.2
13927.8
13701.8
13444.7
13155.6
12834.2
12480.8
12096.5
11682.9
11242.4
10778.3
10294.2
9794.31
9283.29
8766.06
8247.69
7733.26
7227.73
6735.8
6261.79
5809.56
5382.44
4983.11
4613.67
4275.53
3969.51
3695.8
3454.06
3243.45
3062.7
2910.23
2784.15
2682.42
2602.86
2543.24
2501.38
2475.11
2462.44
2461.47
2470.5
2488.04
2512.75
2543.54
2579.49
2619.86
2664.08
2711.71
2762.44
2816.06
2872.41
2931.39
2992.92
3056.96
3123.43
3192.28
3263.44
3336.85
3412.43
3490.1
3569.78
3651.39
3734.84
3820.01
3906.74
3994.85
4084.05
4174.01
4264.29
4354.35
4443.59
4531.33
4616.84
4699.38
4778.22
4852.67
4922.14
4986.12
5044.21
5096.13
5141.74
5180.97
5213.85
5240.49
5261.05
5275.76
5284.88
5288.7
5287.59
5281.95
5272.24
5258.98
5242.72
5224.03
5203.49
5181.64
5158.92
5135.69
5112.14
5088.3
5064.02
5038.98
5012.7
4984.57
4953.91
4920.02
4882.24
4839.99
4792.85
4740.6
4683.22
4620.94
4554.21
4483.73
4410.36
4335.13
4259.14
4183.59
4109.62
4038.36
3970.83
3907.9
3850.33
3798.68
3753.33
3714.53
3682.35
3656.75
3637.58
3624.6
3617.53
3616.05
3619.83
3628.53
3641.81
3659.33
3680.76
3705.72
3733.84
3764.67
3797.74
3832.5
3868.32
3904.53
3940.39
3975.13
4007.96
4038.11
4064.84
4087.5
4105.56
4118.61
4126.42
4128.92
4126.21
4118.6
4106.52
4090.54
4071.31
4049.51
4025.82
4000.78
3974.72
3947.54
3918.44
3885.28
3843.58
3784.5
3690.97
3530.55
3241.82
2709.81
1719.86
306.876
543.034
15000
14999
14997.4
14994.7
14990.6
14984.4
14975.6
14963.2
14946.1
14923
14892.4
14852.6
14801.6
14737.2
14657.1
14558.9
14439.9
14297.8
14130.2
13934.9
13710
13454
13166.1
12845.9
12493.6
12110.2
11697.5
11257.7
10794
10310
9810.02
9298.56
8780.55
8261.08
7745.23
7237.96
6744.01
6267.72
5812.99
5383.18
4981.02
4608.65
4267.53
3958.5
3681.82
3437.15
3223.72
3040.27
2885.25
2756.81
2652.91
2571.39
2510.03
2466.65
2439.1
2425.35
2423.52
2431.87
2448.88
2473.2
2503.69
2539.41
2579.57
2623.58
2670.97
2721.39
2774.62
2830.49
2888.89
2949.74
3013.01
3078.65
3146.62
3216.88
3289.38
3364.09
3440.95
3519.9
3600.88
3683.83
3768.65
3855.19
3943.27
4032.64
4122.96
4213.8
4304.63
4394.86
4483.79
4570.7
4654.83
4735.43
4811.8
4883.3
4949.39
5009.64
5063.73
5111.47
5152.76
5187.6
5216.08
5238.34
5254.58
5265.04
5270.03
5269.89
5265.02
5255.89
5243
5226.9
5208.17
5187.39
5165.08
5141.73
5117.68
5093.17
5068.25
5042.81
5016.56
4989.06
4959.75
4927.98
4893.11
4854.48
4811.55
4763.93
4711.38
4653.9
4591.7
4525.23
4455.15
4382.31
4307.7
4232.41
4157.58
4084.35
4013.81
3946.97
3884.7
3827.71
3776.59
3731.71
3693.32
3661.52
3636.25
3617.39
3604.72
3597.95
3596.78
3600.87
3609.89
3623.48
3641.3
3662.99
3688.17
3716.41
3747.28
3780.25
3814.75
3850.16
3885.79
3920.89
3954.7
3986.46
4015.4
4040.84
4062.17
4078.89
4090.65
4097.24
4098.66
4095.06
4086.73
4074.16
4057.89
4038.59
4016.93
3993.54
3968.95
3943.43
3916.86
3888.39
3855.88
3814.85
3756.51
3663.98
3505.21
3219.75
2694.28
1720.02
307.02
542.482
15000
14999
14997.4
14994.7
14990.6
14984.6
14975.8
14963.5
14946.5
14923.7
14893.4
14853.9
14803.3
14739.4
14659.9
14562.4
14444.3
14303.1
14136.5
13942.3
13718.6
13464
13177.4
12858.5
12507.5
12125.3
11713.6
11274.6
10811.5
10327.9
9827.92
9316.14
8797.48
8276.98
7759.73
7250.72
6754.68
6276.01
5818.64
5385.94
4980.73
4605.15
4260.74
3948.38
3668.36
3420.41
3203.77
3017.25
2859.31
2728.12
2621.68
2537.84
2474.42
2429.2
2400.07
2384.98
2382.02
2389.46
2405.75
2429.5
2459.55
2494.89
2534.74
2578.44
2625.49
2675.53
2728.3
2783.61
2841.35
2901.46
2963.88
3028.6
3095.59
3164.84
3236.33
3310.05
3385.98
3464.08
3544.33
3626.67
3711.03
3797.28
3885.26
3974.73
4065.35
4156.71
4248.3
4339.51
4429.67
4518.02
4603.82
4686.28
4764.69
4838.37
4906.74
4969.33
5025.79
5075.88
5119.46
5156.49
5187.04
5211.21
5229.18
5241.2
5247.54
5248.55
5244.62
5236.19
5223.78
5207.93
5189.22
5168.21
5145.46
5121.44
5096.54
5071
5044.91
5018.2
4990.62
4961.79
4931.18
4898.21
4862.24
4822.68
4779.01
4730.85
4677.97
4620.38
4558.28
4492.1
4422.48
4350.23
4276.33
4201.81
4127.81
4055.42
3985.72
3919.67
3858.14
3801.84
3751.32
3707
3669.1
3637.73
3612.86
3594.37
3582.04
3575.61
3574.77
3579.21
3588.56
3602.48
3620.6
3642.54
3667.9
3696.24
3727.08
3759.88
3794.05
3828.95
3863.88
3898.09
3930.84
3961.37
3988.97
4012.98
4032.82
4048.07
4058.41
4063.7
4063.96
4059.39
4050.32
4037.23
4020.7
4001.36
3979.88
3956.85
3932.76
3907.85
3881.96
3854.18
3822.37
3782.07
3724.54
3633.12
3476.26
3194.68
2677.89
1720.38
307.193
540.753
15000
14999
14997.4
14994.8
14990.7
14984.7
14976
14963.8
14947
14924.3
14894.3
14855.1
14804.9
14741.5
14662.7
14565.8
14448.6
14308.4
14142.9
13949.9
13727.5
13474.2
13189.1
12871.6
12522
12141.1
11730.6
11292.7
10830.5
10347.4
9847.61
9335.71
8816.55
8295.16
7776.62
7265.94
6767.85
6286.78
5826.69
5391
4982.57
4603.59
4255.65
3939.69
3656.04
3404.49
3184.31
2994.35
2833.12
2698.83
2589.49
2502.99
2437.14
2389.77
2358.74
2342
2337.65
2343.94
2359.26
2382.24
2411.65
2446.47
2485.85
2529.12
2575.73
2625.3
2677.52
2732.2
2789.21
2848.49
2909.99
2973.7
3039.63
3107.77
3178.15
3250.78
3325.66
3402.8
3482.19
3563.81
3647.59
3733.44
3821.21
3910.67
4001.51
4093.33
4185.62
4277.78
4369.14
4458.95
4546.44
4630.82
4711.34
4787.3
4858.07
4923.16
4982.15
5034.77
5080.83
5120.26
5153.08
5179.38
5199.31
5213.09
5220.99
5223.33
5220.5
5212.94
5201.13
5185.63
5167.01
5145.84
5122.66
5097.98
5072.2
5045.58
5018.27
4990.21
4961.23
4930.97
4898.97
4864.69
4827.54
4786.98
4742.5
4693.76
4640.53
4582.83
4520.84
4454.98
4385.86
4314.28
4241.15
4167.51
4094.42
4022.97
3954.19
3889.04
3828.34
3772.82
3723.01
3679.31
3641.98
3611.11
3586.69
3568.62
3556.68
3550.62
3550.16
3554.94
3564.64
3578.88
3597.28
3619.46
3644.97
3673.35
3704.1
3736.65
3770.4
3804.67
3838.78
3871.98
3903.53
3932.7
3958.81
3981.25
3999.49
4013.15
4021.97
4025.87
4024.92
4019.34
4009.5
3995.9
3979.12
3959.79
3938.53
3915.91
3892.39
3868.15
3842.98
3815.95
3784.89
3745.34
3688.68
3598.47
3443.68
3165.92
2655.31
1702.25
307.198
541.687
15000
14999.1
14997.4
14994.8
14990.8
14984.8
14976.2
14964.1
14947.4
14924.9
14895.1
14856.2
14806.4
14743.5
14665.2
14569.1
14452.6
14313.4
14149
13957.2
13736.1
13484.3
13200.6
12884.7
12536.6
12157.2
11748.1
11311.5
10850.2
10367.9
9868.57
9356.77
8837.32
8315.24
7795.6
7283.38
6783.35
6299.94
5837.15
5398.46
4986.73
4604.25
4252.63
3932.87
3645.36
3389.93
3165.93
2972.23
2807.39
2669.66
2557.09
2467.58
2398.97
2349.1
2315.85
2297.16
2291.12
2295.96
2310.08
2332.04
2360.6
2394.71
2433.46
2476.15
2522.2
2571.17
2622.75
2676.72
2732.93
2791.31
2851.81
2914.45
2979.23
3046.18
3115.36
3186.79
3260.52
3336.57
3414.98
3495.74
3578.81
3664.13
3751.56
3840.9
3931.84
4024.01
4116.91
4209.94
4302.45
4393.68
4482.84
4569.15
4651.81
4730.1
4803.37
4871.05
4932.71
4988.01
5036.72
5078.74
5114.04
5142.67
5164.77
5180.52
5190.18
5194.04
5192.49
5185.95
5174.91
5159.88
5141.45
5120.19
5096.65
5071.33
5044.67
5016.97
4988.38
4958.94
4928.48
4896.72
4863.26
4827.6
4789.22
4747.59
4702.27
4652.9
4599.31
4541.49
4479.63
4414.12
4345.55
4274.68
4202.41
4129.71
4057.62
3987.2
3919.44
3855.26
3795.5
3740.84
3691.81
3648.83
3612.12
3581.82
3557.92
3540.31
3528.8
3523.16
3523.07
3528.23
3538.27
3552.82
3571.49
3593.85
3619.45
3647.81
3678.39
3710.6
3743.82
3777.36
3810.53
3842.58
3872.8
3900.48
3924.98
3945.73
3962.26
3974.24
3981.47
3983.93
3981.72
3975.11
3964.51
3950.41
3933.4
3914.1
3893.11
3870.96
3848.05
3824.52
3800.11
3773.85
3743.55
3704.79
3649.04
3560.11
3407.47
3133.67
2630.42
1694.37
307.198
542.493
15000
14999.1
14997.4
14994.9
14990.9
14984.9
14976.4
14964.3
14947.8
14925.4
14895.8
14857.2
14807.7
14745.3
14667.5
14572
14456.3
14318
14154.6
13964
13744.2
13493.8
13211.7
12897.3
12550.8
12173
11765.4
11330.1
10870.1
10388.8
9890.14
9378.7
8859.22
8336.69
7816.17
7302.63
6800.84
6315.26
5849.89
5408.25
4993.26
4607.24
4251.87
3928.2
3636.68
3377.2
3149.14
2951.46
2782.74
2641.28
2525.16
2432.32
2360.63
2307.94
2272.14
2251.18
2243.14
2246.25
2258.88
2279.57
2307.05
2340.22
2378.16
2420.1
2465.43
2513.7
2564.53
2617.69
2673.01
2730.42
2789.86
2851.34
2914.91
2980.59
3048.47
3118.61
3191.08
3265.94
3343.23
3423
3505.23
3589.87
3676.82
3765.89
3856.8
3949.18
4042.56
4136.35
4229.9
4322.46
4413.25
4501.44
4586.23
4666.87
4742.67
4813.03
4877.44
4935.54
4987.06
5031.83
5069.79
5100.95
5125.42
5143.35
5154.97
5160.57
5160.49
5155.15
5145.02
5130.62
5112.51
5091.26
5067.42
5041.53
5014.03
4985.25
4955.4
4924.53
4892.57
4859.28
4824.31
4787.23
4747.56
4704.82
4658.61
4608.61
4554.64
4496.7
4434.97
4369.84
4301.86
4231.76
4160.39
4088.7
4017.69
3948.37
3881.71
3818.61
3759.86
3706.14
3657.98
3615.77
3579.77
3550.1
3526.76
3509.66
3498.63
3493.41
3493.73
3499.26
3509.63
3524.47
3543.36
3565.86
3591.51
3619.76
3650.08
3681.86
3714.43
3747.12
3779.22
3810.01
3838.78
3864.85
3887.63
3906.59
3921.32
3931.55
3937.14
3938.11
3934.62
3926.98
3915.62
3901.05
3883.85
3864.62
3843.93
3822.27
3800
3777.2
3753.57
3728.09
3698.55
3660.58
3605.74
3518.13
3367.73
3098
2602.24
1678.07
307.098
544.15
15000
14999.1
14997.5
14994.9
14990.9
14985
14976.5
14964.5
14948
14925.8
14896.4
14858
14808.8
14746.7
14669.3
14574.4
14459.4
14321.9
14159.4
13969.9
13751.4
13502.3
13221.7
12908.9
12564
12187.9
11781.9
11348.2
10889.5
10409.4
9911.65
9400.81
8881.57
8358.88
7837.76
7323.17
6819.88
6332.34
5864.58
5420.15
5002.02
4612.54
4253.45
3925.85
3630.25
3366.61
3134.36
2932.51
2759.69
2614.26
2494.33
2397.88
2322.82
2267
2228.33
2204.79
2194.45
2195.52
2206.37
2225.51
2251.65
2283.65
2320.56
2361.57
2406.03
2453.43
2503.4
2555.65
2610
2666.35
2724.66
2784.94
2847.21
2911.56
2978.06
3046.82
3117.92
3191.47
3267.53
3346.17
3427.41
3511.22
3597.52
3686.16
3776.87
3869.3
3963.01
4057.42
4151.88
4245.66
4337.96
4427.95
4514.83
4597.79
4676.12
4749.18
4816.42
4877.42
4931.85
4979.52
5020.3
5054.18
5081.21
5101.53
5115.32
5122.86
5124.46
5120.52
5111.49
5097.87
5080.22
5059.1
5035.08
5008.7
4980.42
4950.6
4919.51
4887.24
4853.77
4818.93
4782.43
4743.9
4702.91
4659.04
4611.92
4561.26
4506.9
4448.85
4387.27
4322.53
4255.17
4185.88
4115.46
4044.84
3974.98
3906.83
3841.34
3779.37
3721.71
3669
3621.78
3580.42
3545.19
3516.2
3493.47
3476.93
3466.39
3461.63
3462.35
3468.25
3478.94
3494.03
3513.11
3535.69
3561.3
3589.37
3619.33
3650.56
3682.38
3714.11
3745.02
3774.43
3801.63
3825.99
3846.95
3864.04
3876.91
3885.34
3889.25
3888.72
3883.95
3875.29
3863.19
3848.17
3830.8
3811.67
3791.31
3770.18
3748.56
3726.49
3703.61
3678.89
3650.09
3612.87
3558.94
3472.64
3324.45
3058.48
2567.74
1641.09
306.913
544.75
15000
14999.1
14997.5
14994.9
14990.9
14985.1
14976.6
14964.6
14948.2
14926.1
14896.7
14858.5
14809.6
14747.7
14670.7
14576.3
14461.8
14325
14163.4
13974.8
13757.4
13509.6
13230.4
12919.1
12575.8
12201.3
11797
11364.9
10907.8
10429
9932.38
9422.4
8903.68
8381.12
7859.72
7344.39
6839.9
6350.69
5880.82
5433.84
5012.76
4619.98
4257.29
3925.83
3626.19
3358.36
3121.86
2915.73
2738.68
2589.1
2465.15
2364.86
2286.16
2226.94
2185.12
2158.7
2145.75
2144.48
2153.25
2170.56
2195.09
2225.68
2261.32
2301.19
2344.59
2390.98
2439.95
2491.17
2544.46
2599.68
2656.78
2715.78
2776.7
2839.64
2904.7
2971.99
3041.64
3113.76
3188.46
3265.84
3345.94
3428.76
3514.25
3602.28
3692.61
3784.92
3878.77
3973.62
4068.83
4163.67
4257.35
4349.04
4437.9
4523.13
4603.96
4679.71
4749.8
4813.76
4871.21
4921.89
4965.64
5002.4
5032.19
5055.09
5071.27
5080.95
5084.44
5082.09
5074.35
5061.7
5044.67
5023.84
4999.77
4973.01
4944.04
4913.27
4880.99
4847.36
4812.4
4776.02
4738
4698
4655.69
4610.68
4562.65
4511.32
4456.57
4398.4
4336.98
4272.66
4205.93
4137.48
4068.06
3998.55
3929.87
3862.95
3798.68
3737.92
3681.4
3629.77
3583.54
3543.09
3508.67
3480.41
3458.34
3442.38
3432.36
3428.06
3429.2
3435.45
3446.43
3461.74
3480.94
3503.55
3529.03
3556.83
3586.34
3616.91
3647.87
3678.51
3708.13
3736.04
3761.58
3784.14
3803.21
3818.37
3829.33
3835.93
3838.15
3836.11
3830.08
3820.42
3807.61
3792.17
3774.67
3755.66
3735.64
3715.03
3694.04
3672.68
3650.53
3626.51
3598.4
3561.88
3508.8
3423.78
3277.72
3015.25
2529.81
1616.47
306.873
546.506
15000
14999.1
14997.5
14994.9
14990.9
14985.1
14976.6
14964.7
14948.3
14926.2
14896.9
14858.8
14810
14748.3
14671.6
14577.5
14463.5
14327.2
14166.3
13978.5
13762.1
13515.4
13237.4
12927.5
12585.8
12212.9
11810.3
11379.8
10924.3
10447
9951.74
9442.83
8924.89
8402.77
7881.39
7365.67
6860.32
6369.79
5898.12
5448.91
5025.16
4629.32
4263.22
3928.07
3624.49
3352.55
3111.81
2901.39
2720.04
2566.2
2438.09
2333.78
2251.23
2188.37
2143.14
2113.56
2097.72
2093.83
2100.23
2115.42
2138.06
2166.97
2201.11
2239.61
2281.76
2326.96
2374.77
2424.85
2476.96
2530.96
2586.79
2644.43
2703.95
2765.42
2828.96
2894.71
2962.81
3033.41
3106.64
3182.63
3261.44
3343.11
3427.62
3514.85
3604.61
3696.59
3790.4
3885.49
3981.26
4076.99
4171.88
4265.12
4355.84
4443.23
4526.49
4604.91
4677.85
4744.8
4805.32
4859.12
4905.97
4945.77
4978.48
5004.15
5022.91
5034.95
5040.53
5039.99
5033.74
5022.25
5006.04
4985.66
4961.69
4934.68
4905.15
4873.52
4840.14
4805.21
4768.83
4730.96
4691.43
4650
4606.37
4560.22
4511.27
4459.28
4404.14
4345.85
4284.59
4220.69
4154.62
4087.02
4018.62
3950.25
3882.79
3817.14
3754.14
3694.62
3639.3
3588.79
3543.59
3504.09
3470.53
3443.04
3421.66
3406.3
3396.82
3392.99
3394.53
3401.11
3412.35
3427.84
3447.1
3469.65
3494.93
3522.36
3551.31
3581.12
3611.1
3640.56
3668.78
3695.1
3718.88
3739.57
3756.7
3769.89
3778.91
3783.68
3784.21
3780.69
3773.41
3762.79
3749.3
3733.47
3715.85
3696.98
3677.3
3657.19
3636.81
3616.1
3594.61
3571.22
3543.71
3507.82
3455.53
3371.74
3227.9
2969.82
2495.04
1612
307.025
548.276
15000
14999.1
14997.5
14994.9
14990.9
14985.1
14976.6
14964.7
14948.3
14926.2
14896.9
14858.9
14810.1
14748.6
14672
14578.1
14464.4
14328.5
14168.1
13981
13765.4
13519.7
13242.8
12934.2
12593.8
12222.5
11821.4
11392.6
10938.7
10463
9969.22
9461.58
8944.66
8423.25
7902.22
7386.44
6880.59
6389.1
5916.01
5464.9
5038.82
4640.24
4271.01
3932.4
3625.09
3349.19
3104.32
2889.66
2704.01
2545.88
2413.53
2305.08
2218.52
2151.83
2102.98
2070.01
2051.01
2044.22
2047.97
2060.76
2081.24
2108.19
2140.57
2177.48
2218.15
2261.98
2308.47
2357.26
2408.08
2460.77
2515.24
2571.47
2629.51
2689.45
2751.42
2815.56
2882.04
2951.02
3022.68
3097.14
3174.53
3254.89
3338.24
3424.49
3513.49
3604.94
3698.48
3793.62
3889.73
3986.14
4082.06
4176.67
4269.11
4358.53
4444.13
4525.14
4600.9
4670.84
4734.48
4791.46
4841.52
4884.48
4920.27
4948.9
4970.43
4985.02
4992.91
4994.39
4989.85
4979.72
4964.52
4944.78
4921.09
4893.99
4864.04
4831.68
4797.31
4761.18
4723.45
4684.14
4643.16
4600.33
4555.42
4508.15
4458.29
4405.64
4350.1
4291.71
4230.61
4167.13
4101.72
4034.98
3967.61
3900.4
3834.18
3769.81
3708.11
3649.86
3595.76
3546.41
3502.28
3463.76
3431.09
3404.39
3383.71
3368.97
3360.03
3356.66
3358.59
3365.48
3376.94
3392.54
3411.81
3434.22
3459.21
3486.17
3514.46
3543.41
3572.31
3600.47
3627.21
3651.85
3673.82
3692.58
3707.72
3718.92
3726.01
3728.94
3727.81
3722.84
3714.37
3702.81
3688.68
3672.49
3654.78
3636.03
3616.68
3597.03
3577.2
3557.07
3536.15
3513.29
3486.28
3450.92
3399.34
3316.76
3175.28
2922.17
2458.49
1602.75
307.105
549.129
15000
14999.1
14997.5
14994.9
14990.9
14985
14976.5
14964.6
14948.2
14926.1
14896.8
14858.7
14809.9
14748.4
14671.9
14578.1
14464.6
14328.9
14168.9
13982.3
13767.3
13522.4
13246.4
12938.9
12599.8
12229.9
11830.3
11403.1
10950.9
10476.8
9984.54
9478.32
8962.61
8442.15
7921.75
7406.23
6900.24
6408.16
5934.03
5481.42
5053.38
4652.41
4280.39
3938.63
3627.84
3348.2
3099.38
2880.61
2690.76
2528.37
2391.77
2279.12
2188.46
2117.8
2065.16
2028.58
2006.2
1996.26
1997.1
2007.22
2025.26
2050
2080.36
2115.42
2154.41
2196.66
2241.66
2289.01
2338.41
2389.68
2442.7
2497.44
2553.95
2612.3
2672.64
2735.11
2799.89
2867.18
2937.16
3010
3085.82
3164.73
3246.76
3331.85
3419.88
3510.6
3603.67
3698.61
3794.86
3891.73
3988.47
4084.26
4178.24
4269.54
4357.34
4440.86
4519.38
4592.28
4659.04
4719.25
4772.59
4818.83
4857.84
4889.57
4914.05
4931.4
4941.8
4945.51
4942.88
4934.33
4920.35
4901.45
4878.22
4851.22
4821.01
4788.08
4752.85
4715.64
4676.67
4636.01
4593.65
4549.47
4503.31
4454.95
4404.2
4350.9
4294.98
4236.47
4175.53
4112.47
4047.71
3981.83
3915.48
3849.42
3784.45
3721.37
3660.98
3604.01
3551.15
3502.96
3459.93
3422.41
3390.63
3364.74
3344.77
3330.66
3322.25
3319.33
3321.62
3328.78
3340.41
3356.07
3375.26
3397.46
3422.07
3448.47
3476
3503.98
3531.71
3558.49
3583.65
3606.56
3626.65
3643.45
3656.58
3665.79
3670.96
3672.1
3669.34
3662.97
3653.34
3640.9
3626.16
3609.63
3591.83
3573.21
3554.15
3534.9
3515.54
3495.9
3475.43
3452.99
3426.36
3391.41
3340.46
3259.06
3120.02
2871.93
2417.32
1567.1
307.008
553.947
15000
14999.1
14997.5
14994.9
14990.9
14985
14976.4
14964.5
14948
14925.9
14896.5
14858.4
14809.6
14748
14671.5
14577.7
14464.2
14328.7
14168.9
13982.6
13768.1
13523.7
13248.5
12941.9
12604
12235.3
11837.1
11411.4
10960.8
10488.3
9997.62
9492.89
8978.54
8459.22
7939.71
7424.74
6918.92
6426.61
5951.82
5498.1
5068.5
4665.52
4291.08
3946.52
3632.57
3349.48
3096.95
2874.27
2680.36
2513.82
2373.03
2256.18
2161.38
2086.68
2030.12
1989.78
1963.83
1950.51
1948.2
1955.4
1970.74
1993
2021.09
2054.07
2091.13
2131.6
2174.92
2220.66
2268.51
2318.23
2369.71
2422.9
2477.81
2534.52
2593.17
2653.91
2716.95
2782.47
2850.69
2921.79
2995.94
3073.26
3153.8
3237.56
3324.43
3414.22
3506.59
3601.13
3697.28
3794.39
3891.73
3988.48
4083.8
4176.81
4266.67
4352.57
4433.75
4509.57
4579.44
4642.89
4699.56
4749.16
4791.5
4826.48
4854.08
4874.35
4887.45
4893.6
4893.1
4886.34
4873.78
4855.93
4833.37
4806.66
4776.37
4743.03
4707.1
4668.96
4628.85
4586.95
4543.29
4497.84
4450.49
4401.08
4349.47
4295.53
4239.23
4180.6
4119.81
4057.15
3993.03
3927.99
3862.65
3797.73
3733.99
3672.19
3613.09
3557.41
3505.78
3458.77
3416.83
3380.3
3349.43
3324.35
3305.09
3291.59
3283.7
3281.2
3283.82
3291.2
3302.95
3318.6
3337.65
3359.54
3383.68
3409.43
3436.11
3463.03
3489.49
3514.81
3538.33
3559.45
3577.63
3592.45
3603.58
3610.81
3614.09
3613.47
3609.15
3601.43
3590.7
3577.43
3562.11
3545.27
3527.37
3508.85
3490.03
3471.11
3452.13
3432.86
3412.73
3390.56
3364.18
3329.53
3279.11
3198.85
3062.21
2818.94
2373.18
1542
306.962
555.485
15000
14999.1
14997.4
14994.8
14990.8
14984.9
14976.4
14964.3
14947.8
14925.6
14896.2
14858
14809.1
14747.4
14670.8
14577
14463.5
14328
14168.3
13982.2
13767.9
13524
13249.5
12943.6
12606.6
12239
11842.1
11417.8
10968.6
10497.6
10008.6
9505.38
8992.47
8474.44
7955.98
7441.8
6936.45
6444.24
5969.13
5514.67
5083.9
4679.32
4302.85
3955.86
3639.12
3352.89
3096.94
2870.61
2672.85
2502.32
2357.45
2236.48
2137.56
2058.77
1998.22
1954.01
1924.33
1907.47
1901.8
1905.85
1918.25
1937.78
1963.35
1994
2028.9
2067.37
2108.81
2152.78
2198.92
2246.99
2296.82
2348.36
2401.6
2456.62
2513.53
2572.51
2633.74
2697.44
2763.83
2833.11
2905.48
2981.08
3060
3142.26
3227.8
3316.45
3407.92
3501.83
3597.65
3694.78
3792.48
3889.98
3986.43
4080.96
4172.7
4260.83
4344.57
4423.22
4496.14
4562.83
4622.85
4675.86
4721.61
4759.96
4790.81
4814.18
4830.16
4838.93
4840.76
4835.99
4825.07
4808.49
4786.8
4760.58
4730.41
4696.85
4660.39
4621.45
4580.36
4537.33
4492.48
4445.84
4397.35
4346.94
4294.49
4239.94
4183.26
4124.51
4063.85
4001.58
3938.07
3873.84
3809.49
3745.68
3683.14
3622.6
3564.77
3510.35
3459.94
3414.09
3373.22
3337.69
3307.71
3283.42
3264.85
3251.94
3244.54
3242.44
3245.35
3252.9
3264.7
3280.27
3299.1
3320.61
3344.19
3369.19
3394.92
3420.7
3445.82
3469.61
3491.44
3510.73
3526.98
3539.82
3548.96
3554.25
3555.69
3553.38
3547.55
3538.54
3526.77
3512.71
3496.86
3479.71
3461.71
3443.25
3424.61
3405.94
3387.22
3368.2
3348.26
3326.23
3299.96
3265.5
3215.52
3136.34
3002.15
2764.08
2329.61
1526.6
306.959
555.718
15000
14999.1
14997.4
14994.8
14990.8
14984.8
14976.3
14964.2
14947.6
14925.3
14895.9
14857.5
14808.5
14746.8
14670
14576.1
14462.5
14327
14167.3
13981.4
13767.3
13523.7
13249.6
12944.4
12608.1
12241.4
11845.6
11422.5
10974.7
10505.3
10017.7
9516.04
9004.6
8487.93
7970.67
7457.46
6952.79
6460.94
5985.84
5530.99
5099.41
4693.6
4315.5
3966.46
3647.29
3358.29
3099.26
2869.56
2668.2
2493.9
2345.11
2220.13
2117.16
2034.33
1969.76
1921.61
1888.1
1867.55
1858.35
1859.05
1868.29
1884.87
1907.67
1935.76
1968.28
2004.52
2043.89
2085.9
2130.18
2176.45
2224.53
2274.33
2325.84
2379.1
2434.24
2491.4
2550.78
2612.61
2677.11
2744.5
2815
2888.78
2965.95
3046.58
3130.62
3217.95
3308.32
3401.38
3496.65
3593.56
3691.4
3789.42
3886.78
3982.61
4076.05
4166.25
4252.4
4333.76
4409.67
4479.55
4542.91
4599.36
4648.58
4690.37
4724.59
4751.19
4770.21
4781.78
4786.12
4783.56
4774.48
4759.37
4738.76
4713.24
4683.39
4649.79
4612.97
4573.41
4531.47
4487.45
4441.52
4393.77
4344.23
4292.86
4239.62
4184.47
4127.42
4068.54
4008