<?xml version="1.0"?>
<VTKFile type="PolyData" version="0.1" byte_order="LittleEndian">
  <PolyData>
    <Piece NumberOfPoints="50000" NumberOfVerts="50000" NumberOfLines="0" NumberOfStrips="0" NumberOfPolys="0">
      <Points>
        <DataArray type="Float32" NumberOfComponents="3" format="ascii">
0.364844 0.00758715 0
-0.346716 0.00256376 0
0.353547 -0.00258705 0
0.369182 -0.00212807 0
-0.301692 0.0056632 0
-0.253484 0.00190423 0
0.12137 -0.0237784 0
-0.311726 -7.49796e-05 0
0.107069 -0.0185581 0
-0.0247336 0.00812367 0
0.277319 -0.0116768 0
0.35214 0.00689562 0
-0.203225 0.00636061 0
-0.144368 -0.0223999 0
-0.378771 0.00201888 0
0.285937 0.0110099 0
-0.0530136 -0.00203782 0
0.366179 0.00130674 0
0.138755 0.0011708 0
-0.347179 0.00332756 0
-0.363737 0.00498624 0
0.317328 0.00598928 0
-0.359038 0.00227101 0
0.357 -0.000208583 0
0.227396 -0.0117537 0
0.265939 0.0116463 0
-0.356067 -0.00695916 0
0.366646 -0.00329543 0
-0.254971 0.0213983 0
-0.374788 0.00824898 0
-0.282159 0.0109661 0
-0.262335 -0.0151554 0
0.363157 0.000536889 0
0.365573 -0.00114771 0
0.0695188 0.00457579 0
0.371724 -0.00168973 0
0.112775 0.00124136 0
-0.371657 0.00227281 0
-0.347868 -0.0048432 0
-0.38663 -0.0023396 0
0.268074 0.0118657 0
0.283359 0.00547591 0
-0.355009 -0.0021841 0
0.360856 0.000451853 0
0.373944 0.00101547 0
-0.365565 0.00794588 0
0.35556 0.00433189 0
0.182272 -0.0137928 0
0.351029 0.000127895 0
0.359384 -2.37968e-05 0
0.150637 0.019544 0
-0.358388 -0.000972768 0
-0.249232 0.00858041 0
0.354711 0.00249629 0
-0.352844 0.0022323 0
-0.376126 0.00237053 0
0.365289 -0.00133732 0
0.147426 0.0105165 0
0.273176 0.00678985 0
0.377135 -0.0046376 0
0.307957 0.00423945 0
0.369182 0.00226194 0
0.0812969 -0.0294667 0
0.377094 -0.001765 0
-0.12163 0.0154093 0
-0.351769 0.0013393 0
0.358401 -0.000971919 0
0.36821 -0.000724151 0
0.380866 0.00356025 0
0.263634 0.000781762 0
-0.355935 0.00301824 0
0.357908 0.00329069 0
0.195488 0.00101609 0
0.199813 0.00614086 0
0.170381 0.00462474 0
-0.361141 -0.00223662 0
0.312917 0.0113012 0
-0.342889 0.00399689 0
0.275986 0.00618416 0
-0.375312 0.00155014 0
-0.189254 -0.0307303 0
-0.367673 0.00407555 0
0.338379 0.00454896 0
-0.35739 0.000665388 0
0.37667 -0.00443072 0
-0.358327 0.00309687 0
0.377321 -0.0043446 0
-0.161306 -0.00773429 0
-0.156074 0.020915 0
-0.3614 -0.00640252 0
0.354686 0.00596962 0
-0.353515 -0.000488715 0
0.356455 -0.00171687 0
-0.243757 0.0178018 0
-0.0368771 -0.0198166 0
-0.318062 0.00484818 0
0.355794 0.00783107 0
-0.364469 0.00303747 0
-0.384462 0.00674739 0
-0.381307 -0.000848798 0
-0.319714 -0.00678586 0
-0.354836 -0.00503661 0
0.379797 -0.000644394 0
-0.153809 -0.0186639 0
0.382485 -0.000523824 0
0.313109 0.0114592 0
0.230405 0.00604493 0
0.0183754 0.00715191 0
0.351543 0.00406555 0
-0.359609 -0.00411556 0
-0.271242 0.0178559 0
-0.36484 0.00295558 0
-0.311397 0.00960372 0
268.015 387.698 0
0.239779 0.0066444 0
-0.359572 0.00331714 0
-0.372865 0.00409005 0
6.88361 9.41653 0
-0.362193 0.00157994 0
-0.0185249 -0.0078384 0
0.366784 -0.00131755 0
-0.349385 -0.00334757 0
0.247519 -0.00316741 0
-0.334085 0.00677053 0
0.360016 -0.000646697 0
0.34992 -0.000880587 0
0.114958 0.0216321 0
0.369836 0.00397766 0
-0.323964 -0.00616041 0
0.279121 -0.000828461 0
0.371955 -0.00288933 0
0.368976 -0.000394714 0
-0.382917 0.000755609 0
-0.319453 0.00372295 0
0.377878 -0.00165062 0
0.359161 -0.000950607 0
0.346342 -0.00254256 0
-0.0577677 0.00286768 0
0.289579 -0.0127841 0
0.281731 -0.0107411 0
0.289457 -0.0129908 0
0.343519 0.00869558 0
0.371185 -0.00308172 0
-0.0863358 -0.0125828 0
-0.371212 0.00614912 0
0.246481 -0.0203113 0
-0.237812 0.0181361 0
-0.366202 0.00186697 0
-0.261911 -0.0179098 0
-0.367353 0.00339499 0
0.280124 0.00668583 0
0.356753 0.00204513 0
-0.111673 -0.0106308 0
0.290511 -0.00929972 0
0.288889 0.00756418 0
0.353761 0.00350885 0
0.242233 -0.00874711 0
-0.359977 0.00257425 0
-0.15548 -0.00536918 0
0.370134 -0.00036123 0
0.247289 -0.0014879 0
-0.326692 -0.00264085 0
-0.353688 0.00233385 0
-0.367738 0.00239324 0
-0.0952475 0.00904626 0
0.285115 -0.00571727 0
0.322273 -0.00505864 0
0.326433 0.00332279 0
0.272909 0.00714766 0
-0.151266 0.000544529 0
0.381221 -0.0044503 0
-0.352554 0.00285882 0
-0.0838304 -0.0053111 0
0.36844 0.00390583 0
-0.0674673 -0.00310843 0
-0.284768 0.014226 0
-0.353508 0.00229517 0
-0.215201 -0.00994565 0
-0.358381 -0.00206616 0
-0.359945 -0.00591896 0
0.353232 -0.000105957 0
-0.364075 0.00583965 0
-0.358546 0.00493189 0
0.364675 0.00480956 0
0.355773 -0.000853961 0
0.275098 -0.0156506 0
0.382033 -0.00312356 0
0.378006 0.000364607 0
0.366522 -0.00337049 0
0.0408752 0.0267247 0
0.372771 -0.00334136 0
0.301882 -0.00826334 0
-0.243118 -0.0165854 0
0.336004 0.00578757 0
-0.333181 0.00577964 0
0.353163 0.00154872 0
-0.296897 0.0106291 0
-0.316358 0.00481511 0
-0.354978 0.00351326 0
0.357609 0.00444577 0
-0.237244 0.0171468 0
0.377023 0.00242821 0
0.327046 -0.00496671 0
-0.0747156 -0.00641222 0
0.381839 -0.00454219 0
-0.349871 -0.00722014 0
0.0495927 0.0432548 0
0.151343 -0.00602841 0
-0.316849 0.00969716 0
-0.223325 -0.00919513 0
0.349707 0.000493493 0
-0.155864 -0.0189782 0
0.329547 -0.00333837 0
-0.306223 0.00998206 0
-0.210006 -0.0143021 0
-0.367666 0.00551058 0
-0.362765 0.0069888 0
0.362477 -0.000296338 0
-0.372912 -0.00126667 0
-0.0439747 0.0190078 0
-0.28691 0.0106252 0
-0.372158 0.00329974 0
-0.345559 -0.00578916 0
0.37866 -0.00270529 0
0.134057 0.0223349 0
-0.35372 0.00276295 0
0.380653 0.000995969 0
0.36518 -0.000791699 0
-0.314422 0.00884375 0
-0.37067 -0.000538854 0
-0.36478 -0.00347271 0
0.355247 0.00381921 0
0.185129 0.02136 0
-0.0564483 0.013576 0
-0.377536 0.00401713 0
-0.325069 0.00533866 0
0.279363 -0.0158951 0
-0.286169 -0.00405105 0
-0.360792 0.00301778 0
0.221264 -0.00267657 0
0.373659 -6.82987e-05 0
-0.331272 -0.00615587 0
-0.364944 0.00305334 0
-0.211201 -0.0127095 0
0.18247 0.00617062 0
0.326291 0.0037586 0
-0.344584 0.00637227 0
0.365487 -0.000789225 0
0.376301 0.00237677 0
0.215781 0.0113452 0
0.225091 0.00394196 0
-0.343161 0.0045796 0
0.353116 -0.00269556 0
-0.162501 -0.00853151 0
-0.33198 0.00736635 0
0.353638 -0.000290946 0
-0.321775 0.00718347 0
0.31302 0.00811908 0
0.135653 0.0211798 0
0.195732 0.000221721 0
0.376123 0.000792423 0
-0.343035 0.0044231 0
0.0686681 -0.00749352 0
0.0343187 -0.0126752 0
-0.244739 0.00308932 0
-0.360295 0.00095648 0
-0.354815 0.00264245 0
-0.35234 -0.00127405 0
0.362261 -0.000968911 0
0.359472 -0.000765436 0
0.370285 -0.000901098 0
-0.363522 -0.00260438 0
0.237574 0.00276021 0
0.0195617 0.0112729 0
-0.379656 0.00455353 0
-0.369153 0.00206761 0
0.351833 -0.000395347 0
-0.352832 0.00271867 0
0.349362 0.00586319 0
-0.357968 -0.00132661 0
-0.347134 -0.000137847 0
-0.160789 -0.0207679 0
-0.363661 0.0022229 0
0.343524 -0.00201931 0
-0.309083 0.00970027 0
-0.348167 -0.0029254 0
-0.138232 0.0179887 0
-0.362591 0.00295443 0
-0.368321 0.00343735 0
0.309834 -0.00283535 0
-0.129373 0.0061266 0
0.361755 -0.000892699 0
0.369691 -0.00267561 0
0.235695 0.0125517 0
0.375527 0.00296466 0
0.356501 0.00557712 0
0.37408 0.00378431 0
-0.249274 0.0210781 0
-0.340601 0.00185351 0
-0.37867 0.000832901 0
0.383622 0.000786984 0
-0.0513181 0.00666093 0
0.360546 -0.00164043 0
0.351882 0.00293913 0
0.371267 -0.000719276 0
0.0635616 0.0110139 0
-0.19112 0.0226104 0
0.312631 0.00483257 0
-0.0438629 0.000344722 0
-0.177952 0.00843935 0
-0.297851 0.0104322 0
0.361628 0.0059766 0
-0.263715 0.0131347 0
0.334719 -0.00489055 0
0.27584 -0.00432579 0
-0.377434 0.00567663 0
0.294254 -0.0133316 0
0.379683 -0.00474923 0
0.339505 -0.00276594 0
0.362825 0.00665855 0
-0.368228 0.00485671 0
-0.0808116 0.0135908 0
0.370246 0.00184134 0
0.368532 -0.000895546 0
0.170024 0.0223886 0
-0.351379 -0.000404847 0
-0.344725 0.00454846 0
0.379392 0.000407914 0
-0.352388 -0.00274049 0
0.365914 0.00221049 0
0.368513 -0.0022467 0
0.17645 -0.0212006 0
0.353018 0.00314675 0
-0.361658 0.00300119 0
-0.309416 -0.000558142 0
-0.207816 -0.00229849 0
0.0291556 -0.00701583 0
0.0439465 -0.0265524 0
-0.331754 0.0030482 0
0.164136 -0.0235411 0
-0.0387317 0.0366468 0
-0.373422 0.00551 0
-0.266877 0.0123147 0
-0.364538 0.00403284 0
-0.151124 -0.0122811 0
0.368303 0.00617551 0
-0.25915 0.0138338 0
-0.368981 -3.34545e-05 0
-58.9887 243.991 0
0.36749 -0.00478323 0
0.366515 -0.00103597 0
-0.300714 0.0127928 0
0.356346 0.00265125 0
0.338063 -0.000939084 0
-528.033 -944.303 0
0.112356 0.0132182 0
-0.365203 0.00338089 0
-0.303673 -0.00222499 0
0.363912 0.00317166 0
3.73759 -7.69969 0
0.344448 0.00449181 0
-0.357428 -0.00540884 0
-0.228235 0.000243586 0
-0.36299 -0.00294164 0
-0.370067 0.0061114 0
0.361195 -0.000935754 0
-0.375832 -0.00127397 0
-0.325856 0.00829834 0
0.283446 0.0113442 0
-0.354173 7.88651e-05 0
-0.295195 0.0128061 0
-0.327489 0.00743324 0
0.364947 0.00379616 0
0.329063 -0.00631694 0
-0.218086 0.0172204 0
0.375195 -0.00189637 0
-0.365381 -0.00507348 0
-0.33989 -0.00326181 0
-0.369325 0.00117483 0
0.0319133 -0.0281452 0
-0.355574 -0.00479678 0
0.359973 0.00383067 0
-0.362398 0.00335557 0
-0.360453 0.00183231 0
-0.0888682 0.0136795 0
0.235709 0.0123812 0
-0.11789 0.0329579 0
0.0775552 0.0186637 0
-0.365675 0.0035705 0
-0.0661648 0.0032903 0
-0.366347 -0.000837148 0
-0.368234 0.00500125 0
0.351829 -0.00527944 0
0.30993 0.00852287 0
-0.344503 0.00582951 0
0.326974 0.00440325 0
0.324768 0.00123294 0
-0.351372 0.00280192 0
-0.194 -0.00637398 0
0.256919 -0.0155643 0
-0.351804 0.000798439 0
0.311154 -0.00803988 0
0.142447 -0.00432094 0
-0.361594 -0.000856365 0
0.338014 -0.000544226 0
0.355578 -0.00209095 0
0.361107 -0.00425894 0
0.36788 -0.00139978 0
0.374121 3.81984e-05 0
0.354579 0.00623504 0
-0.363962 0.00254823 0
0.261648 0.00876654 0
-0.300706 -0.00451539 0
0.171841 0.0241906 0
-0.342668 0.00251125 0
-0.12245 -0.00501326 0
-0.284194 0.0106672 0
0.103719 -0.0126375 0
-0.371534 0.0035799 0
0.355046 -0.000953405 0
-0.100155 0.0267662 0
0.127128 0.0141049 0
-0.37653 0.00310563 0
0.357632 0.00171394 0
0.368632 -0.000601182 0
0.352103 0.00781903 0
0.376456 -0.00420645 0
[...]
      <PointData Scalars="T">
        <DataArray type="Float32" Name="T" format="ascii" NumberOfComponents="1">
314.122
422.26
313.631
313.631
422.26
648.04
313.631
435.074
313.631
422.26
313.631
314.122
422.26
435.074
422.26
314.122
435.074
303.545
302.568
422.26
422.26
314.122
422.26
313.631
313.631
314.122
435.074
313.631
422.26
422.26
422.26
435.074
304.313
313.631
314.122
313.631
302.637
422.26
435.074
435.074
314.122
314.122
435.074
305.826
301.35
422.26
314.122
313.631
317.7
313.631
314.122
435.074
422.26
314.122
422.26
422.26
313.631
314.122
314.122
313.631
314.122
314.122
313.631
313.631
422.26
732.778
313.631
313.631
314.122
302.049
422.26
314.122
301.35
314.122
314.122
435.074
314.122
422.26
314.122
663.451
435.074
422.26
314.122
656.032
313.631
422.26
313.631
435.074
422.26
435.074
314.122
435.074
313.631
422.26
435.074
422.26
314.122
422.26
422.26
435.074
435.074
435.074
313.631
435.074
313.631
314.122
314.122
314.122
314.122
435.074
422.26
422.26
422.26
314.122
314.122
422.26
422.26
314.122
669.192
435.074
313.631
435.074
313.631
422.26
313.631
313.631
314.122
314.122
435.074
313.631
313.631
313.631
759.767
422.26
313.631
313.631
313.631
422.26
313.631
313.631
313.631
314.122
313.631
435.074
422.26
313.631
422.26
648.138
435.074
422.26
314.122
314.122
435.074
313.631
314.122
314.122
313.631
422.26
435.074
313.631
313.631
435.074
422.26
422.26
422.26
313.631
313.631
314.122
314.122
672.667
313.631
422.26
435.074
314.122
435.074
422.26
422.26
435.074
435.074
435.074
313.631
422.26
422.26
314.122
313.631
313.631
313.631
308.515
313.631
314.122
313.631
313.631
435.074
314.122
422.26
307.403
422.26
422.26
422.26
314.122
422.26
314.122
313.631
435.074
313.631
435.074
314.122
313.631
422.26
435.074
305.157
435.074
313.631
422.26
435.074
422.26
422.26
313.631
435.074
422.26
422.26
422.26
435.074
313.631
314.122
422.26
301.342
313.631
422.26
435.074
435.074
314.122
314.122
422.26
422.26
422.26
313.631
435.074
422.26
313.631
313.631
435.074
422.26
435.074
314.122
314.122
422.26
313.631
314.122
314.122
314.122
422.26
313.631
435.074
422.26
313.631
422.26
314.122
314.122
312.075
301.876
422.26
313.631
313.631
422.26
697.937
422.26
435.074
313.631
313.631
313.631
435.074
314.122
314.122
422.26
422.26
313.631
422.26
314.122
435.074
435.074
435.074
422.26
313.631
422.26
435.074
422.26
422.26
422.26
313.631
422.26
313.631
313.631
314.122
314.122
314.122
314.122
422.26
649.611
686.067
302.049
422.26
313.631
314.122
313.631
314.122
422.26
314.122
642.401
422.26
422.26
314.122
422.26
313.631
313.631
422.26
313.631
313.631
313.631
314.122
422.26
422.26
319.948
313.631
314.122
435.074
422.26
307.265
435.074
314.122
313.631
313.631
314.122
422.26
435.074
435.074
313.631
313.631
422.26
313.631
422.26
422.26
422.26
422.26
435.074
314.122
422.26
435.074
422.26
313.631
313.631
422.26
314.122
313.631
435.074
314.122
422.26
435.074
314.122
313.631
314.122
435.074
654.75
435.074
422.26
313.631
435.074
422.26
314.122
691.938
422.26
422.26
314.122
313.631
422.26
313.631
435.074
435.074
731.876
313.631
435.074
314.122
422.26
647.596
422.26
314.122
422.26
314.122
422.26
422.26
435.074
422.26
313.631
314.122
422.26
314.122
302.652
422.26
435.074
313.631
683.031
313.631
313.631
435.074
313.631
313.631
313.631
313.631
316.883
314.122
422.26
314.122
435.074
314.122
422.26
435.074
422.26
313.631
422.26
313.631
422.26
314.122
422.26
313.848
313.631
314.122
313.631
422.26
422.26
313.631
422.26
314.122
422.26
314.122
715.209
435.074
422.26
422.26
314.122
303.372
422.26
313.631
635.714
435.074
435.074
422.26
435.074
314.122
313.631
435.074
314.122
435.074
435.074
313.631
313.631
435.074
422.26
663.323
435.074
303.104
435.074
310.581
422.26
435.074
313.631
314.122
435.074
435.074
422.26
422.26
314.122
656.318
313.631
313.631
314.122
422.26
422.26
422.26
313.631
314.122
673.441
435.074
435.074
422.26
302.737
314.122
313.631
301.521
422.26
314.122
314.122
301.331
422.26
314.122
313.631
435.074
313.631
422.26
422.26
422.26
435.074
435.074
435.074
435.074
435.074
313.631
313.631
313.631
314.122
313.631
314.122
314.122
435.074
314.122
422.26
313.631
314.122
422.26
314.122
422.26
669.192
422.26
660.923
314.122
313.631
314.122
313.631
313.631
313.631
422.26
314.122
314.122
633.508
314.122
644.847
422.26
435.074
313.631
313.631
422.26
422.26
435.074
435.074
435.074
314.122
314.122
316.959
314.122
435.074
422.26
314.122
422.26
304.923
314.122
435.074
422.26
313.631
422.26
314.122
314.122
435.074
314.122
435.074
313.631
727.014
422.26
302.568
313.631
435.074
435.074
677.866
422.26
422.26
314.122
313.631
313.631
302.301
314.122
435.074
663.114
435.074
435.074
422.26
314.122
313.631
422.26
314.122
435.074
301.361
314.122
311.611
422.26
314.122
435.074
730.411
314.122
313.631
435.074
314.122
422.26
313.631
313.631
314.122
313.631
435.074
435.074
422.26
762.677
314.122
435.074
313.631
435.074
435.074
314.122
313.631
435.074
435.074
422.26
422.26
313.631
313.631
422.26
435.074
435.074
314.122
313.631
422.26
422.26
313.631
313.631
314.122
314.122
422.26
435.074
435.074
435.074
435.074
314.122
422.26
314.122
314.122
435.074
422.26
313.631
313.631
435.074
422.26
313.631
435.074
435.074
422.26
313.631
435.074
422.26
314.122
422.26
422.26
313.631
314.122
422.26
314.122
313.631
422.26
314.122
313.631
422.26
422.26
313.631
313.631
313.631
314.122
314.122
435.074
435.074
422.26
422.26
314.122
422.26
435.074
303.731
314.122
422.26
422.26
422.26
313.631
314.122
314.122
314.122
422.26
313.631
313.631
706.967
422.26
314.122
313.631
314.122
314.122
314.122
422.26
314.122
314.122
313.631
422.26
314.122
422.26
313.631
314.122
313.631
314.122
313.631
422.26
316.959
694.893
314.122
422.26
422.26
422.26
313.631
435.074
314.122
422.26
313.631
314.122
435.074
313.631
693.719
435.074
435.074
422.26
422.26
422.26
313.631
313.631
313.631
313.631
313.631
649.403
314.122
422.26
435.074
313.631
313.631
422.26
303.104
422.26
314.122
422.26
422.26
422.26
435.074
435.074
303.731
422.26
314.122
422.26
435.074
422.26
435.074
435.074
313.631
314.122
313.631
422.26
435.074
422.26
649.611
435.074
422.26
435.074
314.122
422.26
435.074
313.631
313.631
313.631
422.26
422.26
435.074
314.122
435.074
302.737
422.26
435.074
435.074
314.122
313.631
314.122
306.926
313.631
422.26
422.26
313.631
422.26
314.122
422.26
314.122
422.26
435.074
314.122
422.26
305.628
422.26
422.26
313.631
302.568
435.074
314.122
313.631
304.498
314.122
422.26
435.074
435.074
314.122
422.26
306.578
314.122
313.631
313.631
435.074
422.26
308.864
422.26
422.26
313.631
313.631
314.122
313.631
422.26
435.074
314.122
422.26
314.122
314.122
422.26
422.26
314.122
753.046
313.631
313.631
422.26
422.26
313.631
303.682
422.26
435.074
435.074
314.122
305.108
663.114
422.26
422.26
659.755
435.074
313.631
422.26
313.631
422.26
313.631
313.631
668.614
313.631
422.26
314.122
313.631
422.26
435.074
314.122
313.631
314.122
314.122
314.122
314.122
422.26
314.122
313.631
435.074
313.631
314.122
422.26
313.631
313.631
314.122
422.26
422.26
435.074
313.631
435.074
313.631
435.074
422.26
422.26
314.122
435.074
723.576
435.074
313.631
703.485
422.26
313.631
314.122
435.074
435.074
313.631
422.26
313.631
313.631
435.074
314.122
435.074
314.122
313.631
314.122
313.631
314.122
314.122
422.26
314.122
313.631
313.631
422.26
313.631
435.074
422.26
435.074
313.631
314.122
422.26
435.074
422.26
313.631
422.26
422.26
313.631
313.631
314.122
314.122
422.26
422.26
313.631
422.26
314.122
422.26
435.074
306.073
435.074
313.631
422.26
435.074
422.26
422.26
422.26
662.195
435.074
422.26
422.26
314.122
681.013
313.631
313.631
313.631
313.631
314.122
422.26
313.631
422.26
314.122
422.26
314.122
322.087
435.074
314.122
422.26
313.631
314.122
313.631
435.074
313.631
422.26
303.024
435.074
435.074
314.122
435.074
422.26
422.26
435.074
313.631
314.122
314.122
314.122
435.074
313.631
435.074
313.631
308.612
314.122
314.122
314.122
313.631
313.631
435.074
314.122
314.122
435.074
422.26
313.631
422.26
301.331
422.26
435.074
422.26
656.318
435.074
422.26
314.122
435.074
314.122
422.26
313.631
422.26
314.122
422.26
422.26
314.122
314.122
422.26
313.631
314.122
313.631
304.923
435.074
422.26
435.074
759.917
313.631
422.26
312.967
422.26
422.26
313.631
313.631
422.26
314.122
313.631
313.631
313.631
422.26
313.631
314.122
422.26
422.26
422.26
435.074
422.26
313.631
422.26
313.631
435.074
313.348
313.631
314.122
422.26
435.074
435.074
422.26
313.631
314.122
435.074
313.631
302.138
435.074
435.074
313.631
422.26
303.532
313.631
314.122
435.074
422.26
422.26
422.26
314.122
720.554
314.122
657.871
422.26
313.631
314.122
314.122
313.631
314.122
435.074
699.198
435.074
422.26
313.631
314.122
314.122
314.122
314.122
314.122
435.074
422.26
422.26
422.26
435.074
422.26
422.26
314.175
313.631
313.631
313.631
313.631
422.26
313.631
422.26
303.896
435.074
422.26
314.122
422.26
727.014
313.631
740.666
313.631
313.631
313.631
313.631
314.122
314.122
313.631
314.122
435.074
301.361
648.138
314.122
314.122
313.631
435.074
313.631
435.074
314.122
314.122
314.122
314.122
422.26
313.631
422.26
314.122
313.631
313.631
721.94
722.558
735.71
313.631
313.631
435.074
314.122
422.26
314.122
313.631
435.074
422.26
650.672
313.631
314.122
422.26
313.631
422.26
314.122
422.26
422.26
637.016
422.26
313.631
313.631
435.074
422.26
422.26
422.26
313.631
435.074
314.122
422.26
314.122
314.122
422.26
422.26
314.122
422.26
313.631
313.631
313.631
422.26
305.388
313.631
435.074
422.26
313.631
422.26
313.631
422.26
422.26
313.631
435.074
435.074
313.631
313.631
314.122
313.631
314.122
435.074
314.122
314.122
422.26
422.26
313.631
422.26
314.122
301.35
665.479
422.26
314.122
721.94
651.908
302.099
313.631
435.074
422.26
313.631
422.26
681.013
435.074
435.074
422.26
313.631
313.631
422.26
422.26
313.631
435.074
313.631
314.122
314.122
422.26
422.26
313.631
651.908
314.122
422.26
314.122
313.631
648.923
313.631
313.631
435.074
422.26
435.074
435.074
422.26
422.26
422.26
422.26
314.122
313.631
313.631
422.26
313.631
422.26
422.26
313.631
422.26
422.26
314.122
422.26
435.074
313.631
435.074
435.074
314.122
422.26
314.122
314.122
313.631
313.631
422.26
314.122
305.107
422.26
422.26
314.122
422.26
422.26
310.836
313.631
313.631
435.074
313.631
422.26
306.846
313.631
711.49
422.26
422.26
313.631
313.631
422.26
422.26
422.26
435.074
314.122
435.074
313.631
435.074
435.074
313.631
314.122
313.631
435.074
314.122
313.631
314.122
670.018
313.631
692.848
435.074
422.26
422.26
656.662
435.074
435.074
314.122
314.122
435.074
422.26
422.26
313.631
422.26
422.26
422.26
435.074
435.074
313.631
313.631
314.122
422.26
314.122
314.122
313.631
435.074
313.631
312.034
314.122
303.212
314.122
422.26
704.688
722.567
422.26
422.26
313.631
435.074
435.074
314.122
422.26
435.074
422.26
657.873
422.26
422.26
435.074
313.631
435.074
435.074
422.26
435.074
422.26
313.631
435.074
422.26
313.631
313.631
313.631
435.074
435.074
422.26
314.122
422.26
435.074
308.864
422.26
422.26
422.26
314.122
422.26
314.122
314.122
313.631
435.074
313.631
305.436
435.074
710.894
313.631
314.122
435.074
422.26
422.26
313.631
422.26
435.074
422.26
314.122
314.122
313.631
314.122
435.074
422.26
422.26
313.631
314.122
422.26
314.122
314.122
435.074
435.074
435.074
314.122
314.122
314.122
422.26
314.122
704.526
314.122
422.26
422.26
647.596
314.122
313.631
313.631
313.631
435.074
313.631
313.631
672.852
422.26
314.122
314.122
317.017
422.26
313.631
422.26
313.631
314.122
313.631
302.438
435.074
422.26
435.074
314.122
313.631
313.631
313.631
422.26
314.122
422.26
314.122
313.631
314.122
435.074
314.763
422.26
314.122
314.122
313.631
435.074
313.631
313.631
313.631
313.631
314.122
699.198
314.122
313.631
422.26
435.074
435.074
642.843
422.26
422.26
644.611
422.26
313.631
313.631
435.074
314.122
422.26
422.26
422.26
313.631
435.074
435.074
314.122
313.631
314.122
314.122
314.122
647.124
314.122
314.122
313.631
314.122
422.26
306.3
686.118
435.074
435.074
313.631
435.074
422.26
422.26
422.26
422.26
422.26
704.742
422.26
314.122
314.122
313.631
422.26
313.631
422.26
313.631
314.122
422.26
301.637
317.379
314.122
314.122
313.631
663.323
313.631
302.612
422.26
314.122
422.26
314.122
422.26
313.631
313.631
422.26
422.26
435.074
422.26
435.074
422.26
313.631
313.631
313.631
435.074
314.122
422.26
313.631
435.074
314.122
422.26
422.26
435.074
422.26
313.631
313.631
435.074
313.631
314.122
435.074
422.26
313.631
314.122
422.26
314.122
314.122
313.631
313.631
313.631
435.074
422.26
435.074
435.074
314.122
313.631
314.122
302.637
313.631
422.26
720.554
435.074
313.631
302.473
313.631
313.631
422.26
313.631
314.122
314.122
314.122
313.631
314.122
422.26
422.26
422.26
314.122
422.26
422.26
313.631
301.839
313.631
301.222
422.26
314.122
422.26
314.122
314.122
422.26
313.631
435.074
435.074
435.074
313.631
435.074
435.074
422.26
435.074
435.074
422.26
435.074
435.074
673.152
313.631
422.26
422.26
314.122
314.122
313.631
313.631
314.122
422.26
422.26
314.122
435.074
435.074
314.122
422.26
435.074
318.037
314.122
313.631
422.26
422.26
313.631
422.26
422.26
313.631
435.074
302.536
317.379
313.631
313.631
422.26
422.26
422.26
313.631
422.26
422.26
422.26
422.26
435.074
422.26
314.122
435.074
422.26
422.26
314.122
422.26
313.631
422.26
665.259
314.122
422.26
435.074
313.631
313.631
435.074
435.074
712.06
313.631
657.813
422.26
651.908
435.074
422.26
435.074
435.074
314.122
313.631
435.074
422.26
313.631
314.122
313.631
435.074
313.631
313.631
314.122
314.122
422.26
435.074
422.26
422.26
314.122
422.26
314.122
422.26
435.074
435.074
313.631
301.155
435.074
422.26
313.631
672.667
314.122
313.631
314.122
313.631
313.631
314.122
422.26
435.074
435.074
422.26
313.631
313.631
435.074
313.631
661.372
422.26
422.26
435.074
422.26
314.122
313.631
422.26
435.074
314.122
314.122
422.26
313.631
422.26
313.631
313.631
313.631
422.26
314.122
313.631
313.631
314.122
435.074
301.232
435.074
435.074
313.631
313.631
435.074
422.26
314.122
313.631
313.631
435.074
435.074
422.26
314.122
314.122
435.074
314.122
313.631
699.198
313.631
314.122
422.26
435.074
435.074
422.26
422.26
673.032
422.26
422.26
314.122
435.074
301.876
435.074
435.074
314.122
648.181
422.26
422.26
435.074
313.631
422.26
435.074
314.122
422.26
657.676
422.26
314.122
313.631
314.122
313.631
435.074
435.074
422.26
435.074
422.26
422.26
435.074
422.26
422.26
313.631
314.122
314.122
308.716
304.313
435.074
435.074
314.122
314.122
435.074
435.074
422.26
313.631
648.181
422.26
422.26
313.631
422.26
313.631
314.122
303.332
313.631
422.26
314.122
422.26
422.26
435.074
314.122
422.26
314.122
302.929
321.766
313.631
422.26
435.074
313.646
313.631
302.637
314.122
314.122
313.631
435.074
313.631
313.631
422.26
717.229
422.26
313.631
313.631
313.631
422.26
647.124
422.26
314.122
422.26
314.122
635.714
313.326
313.631
313.631
313.631
422.26
314.122
435.074
312.034
313.631
314.122
422.26
435.074
435.074
422.26
435.074
435.074
315.432
422.26
435.074
313.631
313.631
314.122
422.26
422.26
435.074
435.074
314.122
422.26
435.074
435.074
314.122
422.26
705.332
313.631
422.26
314.122
435.074
313.631
422.26
435.074
314.122
422.26
313.631
435.074
422.26
313.631
314.122
435.074
422.26
422.26
313.631
422.26
435.074
313.631
435.074
314.122
314.122
722.567
314.122
313.631
313.631
313.631
306.073
435.074
313.631
314.122
703.402
314.122
422.26
435.074
435.074
422.26
435.074
313.631
435.074
314.122
314.122
314.122
313.631
314.122
313.631
313.631
314.122
435.074
314.122
314.122
435.074
313.631
313.631
314.122
301.839
435.074
313.631
313.631
435.074
314.122
435.074
435.074
313.631
422.26
422.26
313.631
422.26
314.122
306.073
314.122
313.631
313.631
313.631
313.631
313.631
302.95
422.26
435.074
733.206
314.122
312.967
422.26
313.631
313.631
435.074
313.631
314.122
313.631
313.631
313.631
422.26
314.122
313.631
422.26
313.631
435.074
314.122
313.631
314.122
422.26
435.074
314.122
422.26
422.26
313.631
313.631
313.631
422.26
314.122
301.515
706.969
422.26
313.631
313.631
314.122
435.074
435.074
435.074
313.631
314.122
313.631
435.074
422.26
313.631
312.569
314.122
314.122
313.631
422.26
314.122
435.074
314.122
422.26
422.26
314.122
314.122
422.26
635.714
314.122
435.074
711.49
664.414
694.439
422.26
422.26
435.074
313.631
313.631
435.074
314.122
435.074
314.122
313.631
435.074
313.631
313.631
422.26
313.631
646.396
632.132
422.26
422.26
314.122
314.122
313.631
435.074
313.631
435.074
313.631
313.631
422.26
435.074
422.26
310.836
305.193
314.122
313.631
435.074
313.631
422.26
313.631
422.26
313.631
422.26
422.26
314.122
313.631
435.074
313.631
422.26
314.122
422.26
435.074
435.074
435.074
313.631
422.26
435.074
637.016
435.074
435.074
313.631
422.26
313.631
313.631
314.122
313.631
314.122
313.631
422.26
435.074
636.47
314.122
314.122
422.26
313.631
313.631
313.631
313.631
422.26
422.26
314.122
314.122
313.631
313.631
693.719
301.35
435.074
422.26
422.26
313.631
422.26
302.138
435.074
313.631
422.26
435.074
314.122
422.26
314.122
313.631
314.122
717.495
435.074
315.279
313.631
313.631
313.631
314.122
435.074
314.122
313.631
422.26
313.631
314.122
313.631
435.074
314.122
314.122
435.074
647.866
637.016
315.859
313.631
422.26
422.26
757.264
435.074
313.631
313.631
422.26
435.074
313.631
435.074
422.26
422.26
313.631
314.122
435.074
704.742
435.074
313.631
435.074
435.074
314.122
314.122
314.122
314.122
422.26
435.074
435.074
435.074
314.122
313.631
314.122
313.631
422.26
422.26
422.26
422.26
435.074
422.26
422.26
306.647
314.122
313.631
313.631
435.074
435.074
422.26
422.26
422.26
313.631
651.908
314.122
314.122
313.631
435.074
435.074
313.631
314.122
313.631
435.074
314.122
422.26
422.26
313.631
313.631
313.631
313.631
314.122
314.122
314.122
314.122
313.631
313.631
422.26
313.631
422.26
314.122
422.26
422.26
647.596
313.631
313.631
726.349
314.122
422.26
435.074
422.26
435.074
313.631
422.26
667.747
313.631
301.686
435.074
422.26
422.26
669.766
313.631
313.631
313.631
435.074
302.006
311.186
313.631
720.081
435.074
313.631
314.122
314.122
314.122
313.631
314.122
435.074
313.631
301.222
314.122
422.26
422.26
422.26
422.26
422.26
313.631
435.074
717.486
422.26
422.26
422.26
319.948
317.379
313.631
422.26
313.631
313.631
313.631
313.631
314.122
422.26
422.26
435.074
313.631
422.26
313.631
435.074
313.631
659.755
650.672
422.26
314.122
435.074
435.074
314.122
435.074
307.758
422.26
317.379
314.122
314.122
720.712
314.122
422.26
435.074
313.631
422.26
313.631
313.631
314.122
314.122
314.122
422.26
314.122
688.076
435.074
303.104
435.074
435.074
683.031
313.631
422.26
422.26
422.26
313.631
435.074
422.26
314.122
313.631
313.631
435.074
422.26
301.285
422.26
422.26
314.122
435.074
422.26
435.074
422.26
435.074
422.26
422.26
306.468
314.122
422.26
435.074
313.631
313.631
435.074
422.26
314.122
312.569
314.122
422.26
422.26
313.631
435.074
422.26
435.074
303.896
313.631
313.631
321.328
314.122
314.122
314.122
313.631
422.26
435.074
663.05
659.849
435.074
422.26
314.122
422.26
314.122
313.271
422.26
313.631
314.122
435.074
435.074
305.193
422.26
422.26
314.122
422.26
422.26
422.26
422.26
435.074
422.26
435.074
422.26
422.26
314.122
435.074
435.074
422.26
435.074
314.122
310.31
314.122
314.122
422.26
435.074
313.631
422.26
422.26
435.074
313.631
313.631
422.26
435.074
314.122
313.631
435.074
422.26
435.074
435.074
422.26
313.631
422.26
435.074
314.122
314.122
422.26
435.074
313.631
313.631
422.26
435.074
422.26
422.26
722.408
313.631
314.122
314.122
314.122
314.122
422.26
313.631
313.631
314.122
422.26
435.074
422.26
435.074
314.122
313.631
313.631
313.631
422.26
422.26
422.26
313.631
422.26
302.612
435.074
313.631
422.26
314.122
313.631
422.26
719.795
422.26
313.631
422.26
422.26
435.074
313.631
422.26
313.631
422.26
435.074
314.122
313.631
435.074
422.26
313.631
314.122
314.122
314.122
313.631
422.26
314.122
313.631
422.26
422.26
313.631
313.631
422.26
422.26
654.6
313.631
313.631
422.26
313.631
314.122
422.26
314.122
302.568
704.526
435.074
422.26
314.122
422.26
435.074
313.631
422.26
313.631
313.631
712.06
314.122
435.074
422.26
422.26
435.074
313.631
313.631
314.122
313.631
302.438
314.122
422.26
694.439
435.074
422.26
313.631
669.192
313.631
422.26
422.26
422.26
317.9
314.122