<?xml version="1.0"?>
<VTKFile type="ImageData" version="0.1" byte_order="LittleEndian">
  <ImageData Origin="0 0 0" Spacing="1e-05 1e-05 1e-05" WholeExtent="0 191 0 191 0 0">
    <Piece Extent="0 191 0 191 0 0">
      <CellData Scalars="T">
        <DataArray type="Float32" Name="T" format="ascii" NumberOfComponents="1">
652.09
15000
15000
15000
15000
15000
15000
15000
15000
15000
15000
15000
15000
15000
15000
15000
15000
15000
15000
15000
15000
15000
15000
15000
15000
15000
15000
15000
15000
15000
15000
15000
15000
15000
15000
15000
15000
15000
14999.9
14999.9
14999.9
14999.9
14999.9
14999.8
14999.8
14999.7
14999.6
14999.5
14999.4
14999.3
14999.1
14998.9
14998.6
14998.3
14997.9
14997.5
14996.9
14996.3
14995.5
14994.5
14993.4
14992
14990.4
14988.6
14986.3
14983.7
14980.7
14977.1
14973
14968.2
14962.6
14956.2
14948.8
14940.4
14930.7
14919.6
14907
14892.7
14876.6
14858.3
14837.8
14814.7
14788.9
14760.1
14728
14692.4
14652.9
14609.4
14561.4
14508.8
14451.1
14388.1
14319.4
14244.8
14164
14076.7
13982.6
13881.5
13773
13657.1
13533.5
13402.1
13262.7
13115.2
12959.7
12796
12624.3
12444.6
12257
12061.7
11859
11649.1
11432.4
11209.2
10979.9
10745
10505
10260.5
10012
9760.24
9505.76
9249.26
8991.45
8733.01
8474.68
8217.17
7961.2
7707.49
7456.72
7209.6
6966.78
6728.89
6496.55
6270.33
6050.75
5838.31
5633.47
5436.62
5248.12
5068.28
4897.35
4735.56
4583.05
4439.94
4306.3
4182.15
4067.46
3962.17
3866.16
3779.32
3701.44
3632.34
3571.78
3519.49
3475.19
3438.58
3409.35
3387.16
3371.66
3362.51
3359.34
3361.78
3369.48
3382.06
3399.16
3420.41
3445.46
3473.93
3505.5
3539.8
3576.51
3615.29
3655.83
3697.8
3740.91
3784.84
3829.28
3873.91
3918.36
3962.15
4004.65
4044.86
4081.08
4110.31
4126.99
4120.75
4071.81
3942.12
3657.19
3066.98
1853.02
332.535
2423.6
15000
15000
15000
15000
15000
15000
15000
15000
15000
15000
15000
15000
15000
14999.9
14999.9
14999.9
14999.9
14999.9
14999.9
15000
15000
15000
15000
15000
15000
15000
15000
15000
15000
15000
15000
15000
15000
15000
15000
15000
15000
14999.9
14999.9
14999.9
14999.9
14999.9
14999.8
14999.8
14999.7
14999.6
14999.5
14999.4
14999.3
14999.1
14998.9
14998.6
14998.3
14997.9
14997.5
14996.9
14996.3
14995.5
14994.5
14993.4
14992
14990.4
14988.6
14986.3
14983.7
14980.7
14977.1
14973
14968.2
14962.6
14956.2
14948.9
14940.4
14930.7
14919.6
14907
14892.8
14876.6
14858.3
14837.8
14814.7
14788.9
14760.1
14728
14692.4
14653
14609.4
14561.5
14508.8
14451.2
14388.1
14319.5
14244.9
14164.1
14076.8
13982.7
13881.6
13773.2
13657.3
13533.7
13402.2
13262.8
13115.4
12959.9
12796.2
12624.5
12444.8
12257.2
12062
11859.3
11649.4
11432.6
11209.4
10980.1
10745.2
10505.2
10260.7
10012.2
9760.4
9505.89
9249.37
8991.53
8733.07
8474.7
8217.16
7961.15
7707.39
7456.58
7209.4
6966.53
6728.58
6496.18
6269.89
6050.25
5837.75
5632.83
5435.9
5247.33
5067.41
4896.4
4734.53
4581.93
4438.74
4305.01
4180.77
4065.99
3960.61
3864.52
3777.58
3699.62
3630.43
3569.77
3517.4
3473.01
3436.33
3407.01
3384.74
3369.16
3359.93
3356.69
3359.06
3366.69
3379.21
3396.24
3417.44
3442.42
3470.85
3502.36
3536.62
3573.29
3612.03
3652.54
3694.48
3737.57
3781.48
3825.91
3870.52
3914.96
3958.75
4001.26
4041.48
4077.74
4107.05
4123.95
4118.22
4070.71
3945.26
3674.2
3133.91
2115.95
492.749
2405.57
15000
15000
15000
15000
15000
15000
15000
15000
14999.9
14999.9
14999.9
14999.9
14999.9
14999.9
14999.9
14999.9
14999.9
14999.9
14999.9
14999.9
14999.9
14999.9
14999.9
14999.9
15000
15000
15000
15000
15000
15000
15000
15000
15000
15000
15000
15000
15000
14999.9
14999.9
14999.9
14999.9
14999.9
14999.8
14999.8
14999.7
14999.6
14999.5
14999.4
14999.3
14999.1
14998.9
14998.6
14998.3
14997.9
14997.5
14996.9
14996.3
14995.5
14994.5
14993.4
14992
14990.4
14988.6
14986.3
14983.7
14980.7
14977.1
14973
14968.2
14962.7
14956.2
14948.9
14940.4
14930.7
14919.7
14907.1
14892.8
14876.6
14858.4
14837.8
14814.8
14789
14760.2
14728.1
14692.5
14653.1
14609.6
14561.6
14509
14451.3
14388.3
14319.7
14245.2
14164.4
14077.1
13983
13881.9
13773.5
13657.6
13534
13402.6
13263.2
13115.8
12960.3
12796.6
12624.9
12445.2
12257.7
12062.4
11859.7
11649.8
11433.1
11209.8
10980.5
10745.6
10505.6
10261.1
10012.6
9760.71
9506.16
9249.6
8991.7
8733.18
8474.74
8217.12
7961.03
7707.19
7456.28
7209.01
6966.03
6727.97
6495.45
6269.03
6049.26
5836.62
5631.56
5434.48
5245.75
5065.68
4894.51
4732.47
4579.71
4436.34
4302.44
4178.02
4063.07
3957.51
3861.24
3774.12
3695.98
3626.61
3565.79
3513.23
3468.68
3431.82
3402.34
3379.91
3364.18
3354.79
3351.4
3353.63
3361.13
3373.51
3390.43
3411.5
3436.38
3464.7
3496.11
3530.28
3566.87
3605.54
3645.98
3687.87
3730.9
3774.77
3819.16
3863.76
3908.17
3951.96
3994.47
4034.73
4071.05
4100.51
4117.72
4112.72
4066.91
3945.61
3684.41
3165
2171.61
485.444
2385.33
15000
15000
15000
15000
15000
14999.9
14999.9
14999.9
14999.9
14999.9
14999.9
14999.8
14999.8
14999.8
14999.8
14999.8
14999.8
14999.8
14999.9
14999.9
14999.9
14999.9
14999.9
14999.9
14999.9
14999.9
14999.9
15000
15000
15000
15000
15000
15000
15000
15000
15000
15000
14999.9
14999.9
14999.9
14999.9
14999.9
14999.8
14999.8
14999.7
14999.6
14999.5
14999.4
14999.3
14999.1
14998.9
14998.6
14998.3
14997.9
14997.5
14996.9
14996.3
14995.5
14994.5
14993.4
14992
14990.4
14988.6
14986.4
14983.8
14980.7
14977.2
14973
14968.2
14962.7
14956.3
14948.9
14940.4
14930.8
14919.7
14907.1
14892.8
14876.7
14858.5
14837.9
14814.9
14789.1
14760.3
14728.3
14692.7
14653.3
14609.7
14561.8
14509.2
14451.6
14388.6
14320
14245.5
14164.7
14077.4
13983.4
13882.3
13773.9
13658
13534.5
13403.1
13263.8
13116.4
12960.9
12797.2
12625.6
12445.9
12258.3
12063.1
11860.4
11650.5
11433.8
11210.5
10981.2
10746.2
10506.2
10261.6
10013.1
9761.17
9506.57
9249.93
8991.95
8733.34
8474.81
8217.08
7960.87
7706.9
7455.85
7208.43
6965.29
6727.06
6494.36
6267.76
6047.79
5834.94
5629.67
5432.37
5243.41
5063.1
4891.69
4729.4
4576.39
4432.77
4298.61
4173.93
4058.71
3952.88
3856.35
3768.96
3690.56
3620.93
3559.84
3507.03
3462.22
3425.11
3395.38
3372.71
3356.74
3347.13
3343.51
3345.53
3352.82
3365.01
3381.74
3402.64
3427.35
3455.51
3486.79
3520.82
3557.28
3595.85
3636.18
3677.99
3720.94
3764.75
3809.09
3853.65
3898.04
3941.82
3984.34
4024.62
4061.03
4090.65
4108.19
4103.88
4059.48
3941.03
3685.19
3174.01
2186.35
478.56
2374.02
15000
15000
15000
15000
14999.9
14999.9
14999.9
14999.8
14999.8
14999.8
14999.7
14999.7
14999.7
14999.7
14999.7
14999.7
14999.7
14999.7
14999.7
14999.8
14999.8
14999.8
14999.8
14999.9
14999.9
14999.9
14999.9
14999.9
14999.9
14999.9
15000
15000
15000
15000
15000
15000
15000
14999.9
14999.9
14999.9
14999.9
14999.9
14999.8
14999.8
14999.7
14999.6
14999.5
14999.4
14999.3
14999.1
14998.9
14998.6
14998.3
14997.9
14997.5
14996.9
14996.3
14995.5
14994.5
14993.4
14992
14990.5
14988.6
14986.4
14983.8
14980.7
14977.2
14973
14968.3
14962.7
14956.3
14948.9
14940.5
14930.8
14919.8
14907.2
14892.9
14876.8
14858.6
14838
14815
14789.2
14760.5
14728.4
14692.9
14653.5
14610
14562.1
14509.5
14451.9
14388.9
14320.4
14245.9
14165.2
14077.9
13983.9
13882.8
13774.5
13658.7
13535.1
13403.8
13264.5
13117.1
12961.6
12798.1
12626.4
12446.8
12259.2
12064
11861.3
11651.4
11434.7
11211.4
10982
10747.1
10507
10262.4
10013.8
9761.8
9507.11
9250.38
8992.3
8733.57
8474.91
8217.04
7960.67
7706.52
7455.29
7207.67
6964.32
6725.87
6492.94
6266.08
6045.85
5832.73
5627.17
5429.59
5240.33
5059.7
4887.97
4725.36
4572.01
4428.05
4293.55
4168.52
4052.95
3946.77
3849.88
3762.15
3683.39
3613.41
3551.97
3498.82
3453.67
3416.23
3386.17
3363.18
3346.9
3336.98
3333.08
3334.81
3341.83
3353.76
3370.24
3390.9
3415.39
3443.35
3474.43
3508.29
3544.59
3583
3623.21
3664.89
3707.75
3751.47
3795.74
3840.24
3884.6
3928.36
3970.89
4011.21
4047.7
4077.48
4095.33
4091.57
4048.2
3931.57
3678.77
3172.61
2197.62
473.155
2371.85
15000
15000
14999.9
14999.9
14999.8
14999.8
14999.7
14999.7
14999.6
14999.6
14999.5
14999.5
14999.5
14999.5
14999.5
14999.5
14999.5
14999.5
14999.6
14999.6
14999.7
14999.7
14999.7
14999.8
14999.8
14999.8
14999.9
14999.9
14999.9
14999.9
14999.9
14999.9
15000
15000
15000
15000
14999.9
14999.9
14999.9
14999.9
14999.9
14999.9
14999.8
14999.8
14999.7
14999.6
14999.5
14999.4
14999.3
14999.1
14998.9
14998.6
14998.3
14998
14997.5
14996.9
14996.3
14995.5
14994.5
14993.4
14992.1
14990.5
14988.6
14986.4
14983.8
14980.7
14977.2
14973.1
14968.3
14962.7
14956.3
14949
14940.5
14930.9
14919.8
14907.3
14893
14876.9
14858.7
14838.2
14815.2
14789.4
14760.7
14728.7
14693.1
14653.8
14610.3
14562.4
14509.9
14452.3
14389.4
14320.8
14246.4
14165.7
14078.5
13984.5
13883.5
13775.2
13659.4
13536
13404.7
13265.4
13118.1
12962.6
12799.1
12627.5
12447.8
12260.3
12065.1
11862.4
11652.6
11435.8
11212.5
10983.1
10748.1
10508
10263.3
10014.6
9762.59
9507.8
9250.96
8992.74
8733.87
8475.04
8216.99
7960.43
7706.07
7454.62
7206.75
6963.14
6724.41
6491.18
6264.02
6043.47
5830.01
5624.11
5426.16
5236.52
5055.51
4883.39
4720.37
4566.61
4422.23
4287.3
4161.84
4045.84
3939.22
3841.9
3753.72
3674.53
3604.11
3542.24
3488.66
3443.09
3405.24
3374.78
3351.38
3334.72
3324.43
3320.15
3321.54
3328.22
3339.82
3355.99
3376.36
3400.58
3428.28
3459.11
3492.75
3528.84
3567.07
3607.11
3648.65
3691.38
3734.99
3779.18
3823.61
3867.93
3911.66
3954.19
3994.55
4031.11
4061.04
4079.15
4075.83
4033.18
3917.58
3665.78
3158.16
2165.79
460.924
2345.71
15000
15000
14999.9
14999.8
14999.7
14999.6
14999.5
14999.4
14999.3
14999.2
14999.2
14999.1
14999.1
14999.1
14999.1
14999.2
14999.2
14999.2
14999.3
14999.4
14999.4
14999.5
14999.6
14999.6
14999.7
14999.7
14999.8
14999.8
14999.8
14999.9
14999.9
14999.9
14999.9
14999.9
14999.9
14999.9
14999.9
14999.9
14999.9
14999.9
14999.9
14999.9
14999.8
14999.8
14999.7
14999.6
14999.5
14999.4
14999.3
14999.1
14998.9
14998.6
14998.3
14998
14997.5
14996.9
14996.3
14995.5
14994.5
14993.4
14992.1
14990.5
14988.6
14986.4
14983.8
14980.8
14977.2
14973.1
14968.3
14962.8
14956.4
14949
14940.6
14930.9
14919.9
14907.4
14893.1
14877
14858.8
14838.4
14815.4
14789.6
14760.9
14728.9
14693.4
14654.1
14610.7
14562.8
14510.3
14452.8
14389.9
14321.4
14247
14166.4
14079.2
13985.3
13884.3
13776.1
13660.4
13537
13405.7
13266.5
13119.2
12963.8
12800.3
12628.7
12449.1
12261.7
12066.5
11863.8
11653.9
11437.1
11213.8
10984.4
10749.4
10509.2
10264.5
10015.7
9763.54
9508.64
9251.65
8993.29
8734.24
8475.22
8216.96
7960.17
7705.56
7453.84
7205.68
6961.76
6722.71
6489.13
6261.61
6040.67
5826.81
5620.49
5422.11
5232.03
5050.57
4877.97
4714.47
4560.22
4415.35
4279.91
4153.94
4037.42
3930.29
3832.44
3743.75
3664.04
3593.1
3530.72
3476.63
3430.56
3392.21
3361.27
3337.4
3320.27
3309.53
3304.82
3305.79
3312.06
3323.28
3339.08
3359.1
3382.99
3410.38
3440.93
3474.29
3510.14
3548.15
3587.99
3629.35
3671.93
3715.41
3759.49
3803.84
3848.09
3891.79
3934.32
3974.7
4011.34
4041.41
4059.74
4056.79
4014.7
3899.89
3649.03
3141.92
2147.72
456.365
2339.3
15000
14999.9
14999.8
14999.6
14999.4
14999.2
14999
14998.9
14998.7
14998.6
14998.6
14998.5
14998.5
14998.5
14998.6
14998.6
14998.7
14998.8
14998.9
14999
14999.1
14999.2
14999.3
14999.4
14999.5
14999.6
14999.7
14999.7
14999.8
14999.8
14999.9
14999.9
14999.9
14999.9
14999.9
14999.9
14999.9
14999.9
14999.9
14999.9
14999.9
14999.9
14999.8
14999.8
14999.7
14999.6
14999.5
14999.4
14999.3
14999.1
14998.9
14998.6
14998.3
14998
14997.5
14996.9
14996.3
14995.5
14994.5
14993.4
14992.1
14990.5
14988.6
14986.4
14983.8
14980.8
14977.3
14973.1
14968.4
14962.8
14956.5
14949.1
14940.7
14931
14920
14907.5
14893.3
14877.2
14859
14838.5
14815.6
14789.9
14761.2
14729.2
14693.7
14654.5
14611.1
14563.3
14510.8
14453.3
14390.5
14322.1
14247.7
14167.1
14080.1
13986.2
13885.3
13777.1
13661.4
13538.1
13406.9
13267.7
13120.5
12965.2
12801.7
12630.2
12450.6
12263.2
12068
11865.4
11655.5
11438.7
11215.4
10986
10750.9
10510.6
10265.8
10016.9
9764.66
9509.62
9252.48
8993.94
8734.69
8475.46
8216.96
7959.9
7705.01
7452.97
7204.48
6960.21
6720.78
6486.8
6258.86
6037.48
5823.17
5616.37
5417.5
5226.9
5044.91
4871.78
4707.72
4552.91
4407.46
4271.44
4144.88
4027.77
3920.04
3821.59
3732.3
3651.98
3580.45
3517.48
3462.81
3416.16
3377.24
3345.73
3321.32
3303.65
3292.39
3287.18
3287.66
3293.47
3304.24
3319.61
3339.22
3362.72
3389.75
3419.96
3453.02
3488.58
3526.33
3565.93
3607.09
3649.48
3692.81
3736.76
3781.01
3825.2
3868.85
3911.36
3951.77
3988.48
4018.67
4037.21
4034.61
3993.06
3879.12
3629.74
3126.07
2145.59
455.385
2349.37
15000
14999.8
14999.5
14999.2
14998.8
14998.5
14998.2
14998
14997.8
14997.7
14997.6
14997.6
14997.6
14997.7
14997.7
14997.8
14998
14998.1
14998.3
14998.5
14998.6
14998.8
14999
14999.1
14999.2
14999.4
14999.5
14999.6
14999.7
14999.7
14999.8
14999.8
14999.9
14999.9
14999.9
14999.9
14999.9
14999.9
14999.9
14999.9
14999.9
14999.9
14999.8
14999.8
14999.7
14999.6
14999.5
14999.4
14999.3
14999.1
14998.9
14998.7
14998.3
14998
14997.5
14997
14996.3
14995.5
14994.6
14993.4
14992.1
14990.5
14988.6
14986.4
14983.9
14980.8
14977.3
14973.2
14968.4
14962.9
14956.5
14949.2
14940.8
14931.1
14920.1
14907.6
14893.4
14877.3
14859.2
14838.8
14815.8
14790.2
14761.5
14729.6
14694.1
14654.9
14611.5
14563.8
14511.4
14453.9
14391.2
14322.8
14248.5
14168
14081
13987.2
13886.4
13778.3
13662.7
13539.4
13408.3
13269.2
13122
12966.7
12803.4
12631.9
12452.3
12264.9
12069.8
11867.2
11657.3
11440.5
11217.2
10987.7
10752.6
10512.3
10267.3
10018.4
9765.95
9510.76
9253.45
8994.71
8735.24
8475.76
8216.99
7959.64
7704.42
7452.04
7203.18
6958.5
6718.65
6484.23
6255.81
6033.94
5819.11
5611.78
5412.35
5221.18
5038.59
4864.85
4700.18
4544.73
4398.63
4261.96
4134.74
4016.95
3908.54
3809.42
3719.45
3638.46
3566.26
3502.61
3447.28
3399.97
3360.41
3328.27
3303.24
3284.97
3273.12
3267.34
3267.26
3272.54
3282.8
3297.68
3316.84
3339.9
3366.51
3396.34
3429.04
3464.28
3501.73
3541.06
3581.98
3624.16
3667.31
3711.12
3755.25
3799.34
3842.95
3885.44
3925.86
3962.63
3992.94
4011.7
4009.45
3968.52
3855.76
3608.93
3111.42
2146.24
456.743
2396.72
15000
14999.5
14999
14998.4
14997.8
14997.4
14997
14996.7
14996.5
14996.3
14996.3
14996.2
14996.3
14996.4
14996.6
14996.7
14997
14997.2
14997.5
14997.7
14998
14998.2
14998.5
14998.7
14998.9
14999.1
14999.2
14999.4
14999.5
14999.6
14999.7
14999.8
14999.8
14999.8
14999.9
14999.9
14999.9
14999.9
14999.9
14999.9
14999.9
14999.8
14999.8
14999.8
14999.7
14999.6
14999.5
14999.4
14999.3
14999.1
14998.9
14998.7
14998.3
14998
14997.5
14997
14996.3
14995.5
14994.6
14993.4
14992.1
14990.5
14988.7
14986.5
14983.9
14980.9
14977.3
14973.2
14968.5
14963
14956.6
14949.3
14940.9
14931.3
14920.3
14907.8
14893.6
14877.5
14859.4
14839
14816.1
14790.5
14761.8
14730
14694.6
14655.4
14612.1
14564.4
14512
14454.6
14391.9
14323.6
14249.4
14169
14082
13988.3
13887.6
13779.5
13664
13540.8
13409.8
13270.8
13123.7
12968.5
12805.2
12633.7
12454.3
12266.9
12071.8
11869.2
11659.3
11442.5
11219.2
10989.7
10754.5
10514.1
10269.1
10020
9767.42
9512.06
9254.56
8995.6
8735.89
8476.14
8217.07
7959.39
7703.82
7451.06
7201.78
6956.67
6716.35
6481.44
6252.5
6030.09
5814.69
5606.76
5406.71
5214.91
5031.67
4857.26
4691.89
4535.74
4388.93
4251.53
4123.57
4005.04
3895.89
3796.02
3705.3
3623.56
3550.61
3486.22
3430.15
3382.12
3341.84
3308.99
3283.27
3264.33
3251.82
3245.4
3244.72
3249.4
3259.09
3273.43
3292.07
3314.64
3340.79
3370.19
3402.49
3437.36
3474.47
3513.5
3554.15
3596.1
3639.04
3682.67
3726.67
3770.66
3814.19
3856.65
3897.09
3933.91
3964.35
3983.33
3981.46
3941.2
3829.67
3585.17
3091.72
2130.75
455.521
2431.37
15000
14998.7
14997.8
14997
14996.2
14995.6
14995.1
14994.7
14994.5
14994.4
14994.3
14994.4
14994.5
14994.7
14995
14995.3
14995.6
14996
14996.3
14996.7
14997.1
14997.5
14997.8
14998.1
14998.4
14998.7
14998.9
14999.1
14999.3
14999.5
14999.6
14999.7
14999.7
14999.8
14999.8
14999.9
14999.9
14999.9
14999.9
14999.9
14999.9
14999.8
14999.8
14999.8
14999.7
14999.6
14999.5
14999.4
14999.3
14999.1
14998.9
14998.7
14998.3
14998
14997.5
14997
14996.3
14995.5
14994.6
14993.5
14992.1
14990.5
14988.7
14986.5
14983.9
14980.9
14977.4
14973.3
14968.5
14963
14956.7
14949.4
14941
14931.4
14920.4
14907.9
14893.8
14877.8
14859.7
14839.3
14816.4
14790.8
14762.2
14730.4
14695
14655.9
14612.7
14565
14512.7
14455.4
14392.8
14324.6
14250.4
14170.1
14083.2
13989.6
13888.9
13781
13665.5
13542.4
13411.5
13272.5
13125.5
12970.4
12807.1
12635.8
12456.4
12269.1
12074
11871.4
11661.5
11444.7
11221.4
10991.8
10756.6
10516.1
10271
10021.8
9769.06
9513.52
9255.82
8996.63
8736.65
8476.61
8217.21
7959.18
7703.23
7450.05
7200.33
6954.74
6713.91
6478.46
6248.96
6025.95
5809.93
5601.36
5400.65
5208.15
5024.2
4849.05
4682.93
4526.02
4378.42
4240.23
4111.47
3992.14
3882.17
3781.48
3689.93
3607.37
3533.61
3468.41
3411.53
3362.7
3321.64
3288.02
3261.54
3241.86
3228.64
3221.52
3220.15
3224.18
3233.25
3246.99
3265.05
3287.08
3312.73
3341.65
3373.51
3407.97
3444.7
3483.4
3523.74
3565.42
3608.13
3651.57
3695.41
3739.28
3782.73
3825.15
3865.58
3902.46
3933.02
3952.23
3950.75
3911.17
3800.8
3558.15
3067.42
2110.77
452.633
2435
15000
14995.9
14995.1
14994.7
14994
14993.2
14992.6
14992.2
14992
14991.9
14991.9
14992
14992.2
14992.5
14992.9
14993.4
14993.9
14994.4
14994.9
14995.5
14996
14996.5
14997
14997.4
14997.8
14998.2
14998.5
14998.8
14999
14999.2
14999.4
14999.5
14999.6
14999.7
14999.8
14999.8
14999.9
14999.9
14999.9
14999.9
14999.9
14999.8
14999.8
14999.8
14999.7
14999.6
14999.5
14999.4
14999.3
14999.1
14998.9
14998.7
14998.3
14998
14997.5
14997
14996.3
14995.5
14994.6
14993.5
14992.1
14990.6
14988.7
14986.5
14984
14980.9
14977.4
14973.3
14968.6
14963.1
14956.8
14949.5
14941.1
14931.5
14920.6
14908.1
14894
14878
14859.9
14839.6
14816.8
14791.2
14762.6
14730.9
14695.6
14656.5
14613.3
14565.7
14513.5
14456.2
14393.7
14325.6
14251.5
14171.2
14084.5
13990.9
13890.3
13782.5
13667.2
13544.2
13413.3
13274.5
13127.5
12972.5
12809.3
12638
12458.7
12271.4
12076.4
11873.8
11664
11447.2
11223.8
10994.2
10758.9
10518.3
10273.1
10023.7
9770.88
9515.16
9257.23
8997.79
8737.54
8477.18
8217.44
7959.03
7702.66
7449.03
7198.84
6952.73
6711.36
6475.34
6245.23
6021.58
5804.9
5595.63
5394.2
5200.96
5016.24
4840.3
4673.38
4515.63
4367.2
4228.15
4098.53
3978.32
3867.47
3765.89
3673.46
3590.02
3515.37
3449.29
3391.54
3341.85
3299.94
3265.49
3238.19
3217.7
3203.69
3195.82
3193.71
3197.03
3205.41
3218.5
3235.94
3257.38
3282.47
3310.87
3342.24
3376.25
3412.57
3450.89
3490.9
3532.28
3574.74
3617.96
3661.61
3705.34
3748.7
3791.06
3831.49
3868.42
3899.1
3918.54
3917.48
3878.63
3769.49
3528.8
3040.19
2080
451.372
2435
15000
14990.4
14990.3
14991.6
14991.3
14990.5
14989.8
14989.4
14989.1
14989
14989
14989.2
14989.5
14990
14990.5
14991.1
14991.8
14992.5
14993.2
14993.9
14994.6
14995.3
14996
14996.6
14997.1
14997.6
14998
14998.4
14998.7
14999
14999.2
14999.4
14999.5
14999.6
14999.7
14999.8
14999.8
14999.9
14999.9
14999.9
14999.9
14999.8
14999.8
14999.8
14999.7
14999.6
14999.5
14999.4
14999.3
14999.1
14998.9
14998.7
14998.4
14998
14997.5
14997
14996.3
14995.5
14994.6
14993.5
14992.2
14990.6
14988.7
14986.6
14984
14981
14977.5
14973.4
14968.7
14963.2
14956.9
14949.6
14941.2
14931.7
14920.7
14908.3
14894.2
14878.2
14860.2
14839.9
14817.1
14791.6
14763.1
14731.4
14696.1
14657.1
14614
14566.5
14514.3
14457.2
14394.7
14326.6
14252.7
14172.5
14085.8
13992.4
13891.9
13784.2
13668.9
13546
13415.3
13276.5
13129.7
12974.8
12811.7
12640.5
12461.2
12274
12079
11876.5
11666.6
11449.8
11226.4
10996.8
10761.4
10520.8
10275.4
10025.9
9772.89
9516.96
9258.81
8999.1
8738.55
8477.86
8217.75
7958.94
7702.13
7448.04
7197.33
6950.68
6708.74
6472.1
6241.34
6017.02
5799.63
5589.62
5387.42
5193.39
5007.85
4831.07
4663.29
4504.66
4355.33
4215.38
4084.83
3963.68
3851.89
3749.37
3655.99
3571.6
3496.01
3428.99
3370.31
3319.69
3276.86
3241.52
3213.34
3191.99
3177.14
3168.45
3165.55
3168.1
3175.75
3188.13
3204.9
3225.7
3250.18
3278.02
3308.85
3342.37
3378.24
3416.15
3455.79
3496.84
3539.01
3581.99
3625.44
3669.01
3712.25
3754.54
3794.95
3831.93
3862.74
3882.43
3881.82
3843.81
3736.28
3499.06
3019.8
2091.88
456.791
2435
15000
14995
14993.1
14991.6
14989.9
14988.4
14987.4
14986.7
14986.3
14986.1
14986.1
14986.3
14986.6
14987.2
14987.8
14988.6
14989.4
14990.3
14991.2
14992.2
14993.1
14994
14994.8
14995.6
14996.3
14996.9
14997.5
14998
14998.4
14998.7
14999
14999.2
14999.4
14999.5
14999.6
14999.7
14999.8
14999.8
14999.8
14999.9
14999.8
14999.8
14999.8
14999.8
14999.7
14999.6
14999.5
14999.4
14999.3
14999.1
14998.9
14998.7
14998.4
14998
14997.5
14997
14996.3
14995.6
14994.6
14993.5
14992.2
14990.6
14988.8
14986.6
14984
14981
14977.5
14973.5
14968.8
14963.3
14957
14949.7
14941.4
14931.8
14920.9
14908.5
14894.4
14878.5
14860.5
14840.2
14817.5
14792
14763.6
14731.9
14696.7
14657.8
14614.7
14567.3
14515.2
14458.1
14395.8
14327.8
14253.9
14173.9
14087.3
13994
13893.6
13786
13670.8
13548
13417.4
13278.8
13132.1
12977.2
12814.2
12643.1
12463.9
12276.7
12081.8
11879.3
11669.5
11452.7
11229.2
10999.6
10764.1
10523.4
10277.9
10028.3
9775.08
9518.95
9260.55
9000.57
8739.7
8478.67
8218.17
7958.94
7701.67
7447.08
7195.84
6948.62
6706.06
6468.78
6237.35
6012.31
5794.17
5583.38
5380.37
5185.5
4999.1
4821.44
4652.74
4493.19
4342.91
4201.99
4070.46
3948.33
3835.55
3732.02
3637.64
3552.24
3475.64
3407.63
3347.95
3296.36
3252.56
3216.26
3187.14
3164.88
3149.13
3139.56
3135.82
3137.55
3144.41
3156.04
3172.08
3192.19
3216.03
3243.25
3273.52
3306.5
3341.88
3379.35
3418.58
3459.27
3501.13
3543.83
3587.06
3630.45
3673.56
3715.76
3756.14
3793.15
3824.09
3844.03
3843.92
3806.83
3701.08
3467.46
2995.72
2082.22
462.969
2427.37
15000
14997.3
14994.6
14991.9
14989.3
14987.3
14985.8
14984.7
14983.9
14983.5
14983.3
14983.4
14983.8
14984.3
14985
14985.9
14986.9
14988
14989.1
14990.3
14991.4
14992.5
14993.5
14994.5
14995.4
14996.1
14996.8
14997.4
14997.9
14998.4
14998.7
14999
14999.2
14999.4
14999.6
14999.7
14999.7
14999.8
14999.8
14999.8
14999.8
14999.8
14999.8
14999.8
14999.7
14999.6
14999.5
14999.4
14999.3
14999.1
14998.9
14998.7
14998.4
14998
14997.5
14997
14996.3
14995.6
14994.6
14993.5
14992.2
14990.6
14988.8
14986.6
14984.1
14981.1
14977.6
14973.5
14968.8
14963.4
14957.1
14949.8
14941.5
14932
14921.1
14908.8
14894.7
14878.8
14860.8
14840.6
14817.9
14792.5
14764.1
14732.5
14697.4
14658.5
14615.5
14568.2
14516.2
14459.2
14396.9
14329
14255.3
14175.3
14088.8
13995.6
13895.4
13787.9
13672.9
13550.2
13419.7
13281.1
13134.5
12979.8
12816.9
12645.8
12466.7
12279.7
12084.8
11882.3
11672.5
11455.7
11232.3
11002.6
10767.1
10526.2
10280.7
10030.9
9777.47
9521.12
9262.46
9002.19
8741
8479.61
8218.71
7959.04
7701.29
7446.18
7194.38
6946.56
6703.37
6465.41
6233.27
6007.49
5788.56
5576.96
5373.11
5177.36
4990.06
4811.46
4641.81
4481.28
4330.01
4188.08
4055.53
3932.36
3818.53
3713.95
3618.51
3532.06
3454.4
3385.33
3324.62
3271.99
3227.17
3189.86
3159.75
3136.51
3119.81
3109.32
3104.68
3105.55
3111.56
3122.39
3137.66
3157.04
3180.18
3206.75
3236.4
3268.82
3303.67
3340.65
3379.45
3419.75
3461.26
3503.67
3546.65
3589.84
3632.79
3674.89
3715.22
3752.26
3783.31
3803.53
3803.92
3767.77
3663.7
3432.73
2963.34
2042.07
460.081
2363.48
15000
14998
14995.4
14992.5
14989.7
14987.3
14985.3
14983.7
14982.4
14981.6
14981.1
14981
14981.2
14981.7
14982.5
14983.4
14984.5
14985.7
14987
14988.3
14989.6
14990.9
14992.2
14993.3
14994.4
14995.3
14996.1
14996.9
14997.5
14998
14998.4
14998.8
14999.1
14999.3
14999.5
14999.6
14999.7
14999.8
14999.8
14999.8
14999.8
14999.8
14999.8
14999.8
14999.7
14999.6
14999.5
14999.4
14999.3
14999.1
14998.9
14998.7
14998.4
14998
14997.5
14997
14996.4
14995.6
14994.7
14993.5
14992.2
14990.7
14988.8
14986.7
14984.1
14981.1
14977.7
14973.6
14968.9
14963.5
14957.2
14950
14941.7
14932.2
14921.3
14909
14895
14879.1
14861.2
14841
14818.4
14793
14764.6
14733.1
14698
14659.2
14616.3
14569.1
14517.2
14460.3
14398.1
14330.3
14256.7
14176.8
14090.5
13997.4
13897.3
13789.9
13675
13552.5
13422
13283.7
13137.2
12982.5
12819.7
12648.8
12469.8
12282.8
12088
11885.5
11675.8
11459
11235.5
11005.8
10770.2
10529.3
10283.6
10033.6
9780.04
9523.46
9264.55
9003.99
8742.46
8480.69
8219.38
7959.25
7701.01
7445.36
7192.98
6944.55
6700.7
6462.04
6229.16
6002.6
5782.86
5570.42
5365.68
5169.03
4980.78
4801.22
4630.57
4469.03
4316.72
4173.74
4040.12
3915.87
3800.94
3695.27
3598.73
3511.17
3432.41
3362.24
3300.43
3246.71
3200.82
3162.45
3131.3
3107.05
3089.35
3077.89
3072.3
3072.25
3077.38
3087.36
3101.82
3120.42
3142.82
3168.69
3197.69
3229.5
3263.79
3300.25
3338.58
3378.46
3419.6
3461.68
3504.38
3547.34
3590.11
3632.09
3672.37
3709.41
3740.58
3761.07
3761.99
3726.81
3624.53
3396.86
2934.05
2028.94
461.183
2319.06
15000
14998.4
14996.2
14993.5
14990.7
14988
14985.6
14983.5
14981.8
14980.6
14979.8
14979.3
14979.3
14979.6
14980.3
14981.2
14982.3
14983.6
14985
14986.5
14988
14989.4
14990.8
14992.2
14993.4
14994.5
14995.5
14996.3
14997
14997.6
14998.2
14998.6
14998.9
14999.2
14999.4
14999.5
14999.6
14999.7
14999.8
14999.8
14999.8
14999.8
14999.8
14999.8
14999.7
14999.6
14999.5
14999.4
14999.3
14999.1
14998.9
14998.7
14998.4
14998
14997.6
14997
14996.4
14995.6
14994.7
14993.6
14992.3
14990.7
14988.9
14986.7
14984.2
14981.2
14977.7
14973.7
14969
14963.6
14957.3
14950.1
14941.8
14932.4
14921.6
14909.2
14895.3
14879.4
14861.5
14841.4
14818.8
14793.5
14765.2
14733.7
14698.8
14660
14617.2
14570
14518.2
14461.4
14399.4
14331.7
14258.2
14178.4
14092.2
13999.3
13899.3
13792
13677.3
13554.9
13424.6
13286.3
13140
12985.4
12822.8
12651.9
12473
12286.1
12091.3
11888.9
11679.2
11462.4
11238.9
11009.2
10773.5
10532.5
10286.7
10036.6
9782.8
9525.99
9266.82
9005.95
8744.08
8481.93
8220.19
7959.59
7700.84
7444.64
7191.67
6942.59
6698.06
6458.68
6225.04
5997.68
5777.11
5563.79
5358.15
5160.55
4971.33
4790.77
4619.1
4456.51
4303.13
4159.05
4024.32
3898.95
3782.9
3676.09
3578.4
3489.69
3409.79
3338.47
3275.53
3220.68
3173.67
3134.2
3101.97
3076.65
3057.91
3045.43
3038.85
3037.84
3042.04
3051.12
3064.72
3082.51
3104.13
3129.27
3157.58
3188.74
3222.43
3258.34
3296.16
3335.59
3376.32
3418.04
3460.44
3503.15
3545.72
3587.56
3627.76
3664.8
3696.08
3716.83
3718.31
3684.2
3584.03
3360.77
2908.18
2030.88
468.772
2278.14
15000
14998.7
14996.9
14994.5
14991.9
14989.1
14986.5
14984.1
14982.1
14980.4
14979.2
14978.5
14978.2
14978.3
14978.7
14979.5
14980.6
14981.9
14983.4
14984.9
14986.5
14988.1
14989.6
14991.1
14992.5
14993.7
14994.8
14995.8
14996.6
14997.3
14997.9
14998.4
14998.7
14999
14999.3
14999.5
14999.6
14999.7
14999.7
14999.8
14999.8
14999.8
14999.8
14999.7
14999.7
14999.6
14999.5
14999.4
14999.3
14999.1
14998.9
14998.7
14998.4
14998
14997.6
14997
14996.4
14995.6
14994.7
14993.6
14992.3
14990.7
14988.9
14986.8
14984.2
14981.3
14977.8
14973.8
14969.1
14963.7
14957.5
14950.3
14942
14932.6
14921.8
14909.5
14895.6
14879.8
14861.9
14841.9
14819.3
14794
14765.8
14734.4
14699.5
14660.9
14618.1
14571.1
14519.3
14462.7
14400.7
14333.2
14259.7
14180.1
14094.1
14001.2
13901.4
13794.2
13679.6
13557.4
13427.2
13289.1
13142.9
12988.5
12825.9
12655.2
12476.3
12289.5
12094.8
11892.5
11682.8
11466.1
11242.6
11012.7
10777
10535.9
10290
10039.7
9785.74
9528.71
9269.26
9008.09
8745.87
8483.32
8221.15
7960.07
7700.8
7444.03
7190.45
6940.72
6695.5
6455.38
6220.96
5992.78
5771.35
5557.13
5350.56
5151.99
4961.78
4780.19
4607.46
4443.79
4289.31
4144.11
4008.24
3881.72
3764.5
3656.51
3557.64
3467.75
3386.66
3314.17
3250.04
3194.03
3145.86
3105.25
3071.89
3045.46
3025.64
3012.1
3004.49
3002.48
3005.72
3013.86
3026.56
3043.49
3064.3
3088.66
3116.24
3146.72
3179.77
3215.1
3252.38
3291.32
3331.61
3372.96
3415.02
3457.45
3499.8
3541.48
3581.57
3618.6
3649.97
3671
3673.04
3640.05
3542.08
3323.27
2879.81
2018.96
478.595
2203.21
15000
14999
14997.4
14995.4
14993
14990.4
14987.8
14985.3
14983
14981
14979.5
14978.4
14977.8
14977.6
14977.9
14978.5
14979.5
14980.7
14982.1
14983.7
14985.4
14987
14988.7
14990.2
14991.7
14993
14994.2
14995.3
14996.2
14997
14997.6
14998.2
14998.6
14998.9
14999.2
14999.4
14999.5
14999.6
14999.7
14999.8
14999.8
14999.8
14999.8
14999.7
14999.7
14999.6
14999.5
14999.4
14999.3
14999.1
14998.9
14998.7
14998.4
14998
14997.6
14997
14996.4
14995.6
14994.7
14993.6
14992.3
14990.8
14988.9
14986.8
14984.3
14981.3
14977.9
14973.9
14969.2
14963.8
14957.6
14950.4
14942.2
14932.8
14922
14909.8
14895.9
14880.1
14862.3
14842.3
14819.8
14794.6
14766.5
14735.1
14700.3
14661.7
14619.1
14572.1
14520.5
14463.9
14402.1
14334.7
14261.4
14181.9
14096
14003.3
13903.5
13796.6
13682.1
13560
13430
13292
13145.9
12991.7
12829.2
12658.6
12479.9
12293.1
12098.5
11896.3
11686.6
11469.9
11246.4
11016.5
10780.7
10539.5
10293.5
10043
9788.87
9531.6
9271.89
9010.4
8747.82
8484.88
8222.26
7960.7
7700.9
7443.55
7189.35
6938.96
6693.02
6452.15
6216.94
5987.92
5765.61
5550.48
5342.95
5143.4
4952.17
4769.53
4595.73
4430.95
4275.34
4128.99
3991.96
3864.25
3745.83
3636.64
3536.56
3445.45
3363.15
3289.44
3224.1
3166.89
3117.53
3075.74
3041.22
3013.65
2992.71
2978.07
2969.39
2966.34
2968.57
2975.75
2987.52
3003.55
3023.51
3047.06
3073.87
3103.63
3136.02
3170.72
3207.43
3245.85
3285.68
3326.61
3368.32
3410.44
3452.54
3494.03
3534
3571
3602.45
3623.72
3626.32
3594.4
3498.46
3283.36
2846.32
1996.71
479.135
2160.98
15000
14999.2
14997.9
14996.2
14994.1
14991.8
14989.2
14986.7
14984.4
14982.2
14980.5
14979.1
14978.2
14977.8
14977.8
14978.2
14979
14980.1
14981.5
14983
14984.6
14986.3
14988
14989.6
14991.1
14992.5
14993.8
14994.9
14995.9
14996.7
14997.4
14998
14998.5
14998.8
14999.1
14999.3
14999.5
14999.6
14999.7
14999.7
14999.8
14999.8
14999.8
14999.7
14999.7
14999.6
14999.5
14999.4
14999.3
14999.1
14998.9
14998.7
14998.4
14998
14997.6
14997.1
14996.4
14995.6
14994.7
14993.6
14992.3
14990.8
14989
14986.8
14984.3
14981.4
14978
14974
14969.3
14964
14957.7
14950.6
14942.4
14933
14922.3
14910.1
14896.2
14880.5
14862.8
14842.8
14820.3
14795.2
14767.1
14735.9
14701.1
14662.6
14620.1
14573.2
14521.7
14465.3
14403.5
14336.2
14263.1
14183.7
14097.9
14005.4
13905.8
13799
13684.7
13562.7
13432.9
13295
13149.1
12995
12832.7
12662.2
12483.5
12296.9
12102.4
11900.2
11690.6
11473.8
11250.3
11020.4
10784.6
10543.3
10297.1
10046.5
9792.18
9534.68
9274.68
9012.88
8749.95
8486.6
8223.54
7961.48
7701.14
7443.21
7188.38
6937.32
6690.66
6449.03
6213
5983.14
5759.94
5543.88
5335.39
5134.83
4942.56
4758.85
4583.95
4418.05
4261.29
4113.77
3975.55
3846.64
3727.01
3616.58
3515.27
3422.92
3339.37
3264.42
3197.84
3139.4
3088.82
3045.82
3010.11
2981.36
2959.27
2943.5
2933.72
2929.6
2930.79