<?xml version="1.0"?>
<VTKFile type="PolyData" version="0.1" byte_order="LittleEndian">
  <PolyData>
    <Piece NumberOfPoints="15000" NumberOfVerts="15000" NumberOfLines="0" NumberOfStrips="0" NumberOfPolys="0">
      <Points>
        <DataArray type="Float32" NumberOfComponents="3" format="ascii">
0.356046 0.00754538 0
-0.354475 0.00197487 0
0.348964 -0.00177114 0
0.35737 -0.00180478 0
-0.318161 0.00567318 0
-0.215755 0.00216506 0
0.092243 -0.0182411 0
-0.306152 -0.000281484 0
0.0960603 -0.0187855 0
-0.0417041 0.00715332 0
0.276766 -0.0124529 0
0.343656 0.00686192 0
-0.259279 0.00766235 0
-0.156738 -0.0250246 0
-0.371609 0.0022933 0
0.304385 0.0113868 0
-0.0747747 -0.00356596 0
0.364942 0.00126364 0
0.204576 0.00223254 0
-0.345306 0.00277722 0
-0.369371 0.00478248 0
0.323541 0.00701354 0
-0.350275 0.00211323 0
0.347579 -0.000276598 0
0.224869 -0.0127998 0
0.253844 0.00986883 0
-0.365365 -0.00715624 0
0.360637 -0.00330678 0
-0.267263 0.0212022 0
-0.353642 0.00651931 0
-0.295627 0.0108632 0
-0.283337 -0.0136389 0
0.354452 0.000829685 0
0.353461 -0.000915899 0
0.0877527 0.00414999 0
0.361601 -0.00152959 0
0.167713 0.00167416 0
-0.361711 0.00221274 0
-0.308078 -0.00404287 0
-0.372924 -0.00206225 0
0.251533 0.00979414 0
0.285797 0.006806 0
-0.345764 -0.00230467 0
0.3525 0.000726676 0
0.367338 0.00104455 0
-0.315793 0.00569515 0
0.348567 0.00430286 0
0.172969 -0.0142556 0
0.340432 0.000249805 0
0.34943 -0.000117859 0
0.140147 0.0184002 0
-0.348649 -0.00107015 0
-0.21308 0.00716685 0
0.346366 0.0023436 0
-0.341983 0.00143875 0
-0.369728 0.00291055 0
0.356426 -0.000957852 0
0.138326 0.00932161 0
0.289991 0.00776892 0
0.362813 -0.00464883 0
0.31594 0.00522391 0
0.355237 0.00159666 0
0.0712709 -0.0300727 0
0.364919 -0.00148403 0
-0.0960088 0.0118914 0
-0.359686 0.00120791 0
0.345521 -0.000724778 0
0.358727 -0.000906566 0
0.369555 0.00347331 0
0.247707 0.0015366 0
-0.34898 0.00244438 0
0.347849 0.00247901 0
0.14515 -0.000231764 0
0.183262 0.00612045 0
0.195192 0.00504526 0
-0.351874 -0.00212925 0
0.328546 0.0118985 0
-0.343773 0.00383277 0
0.333565 0.00819905 0
-0.364745 0.00178768 0
-0.190842 -0.0314386 0
-0.35889 0.0035131 0
0.327441 0.00384983 0
-0.347168 0.000622066 0
0.363947 -0.00436802 0
-0.354221 0.00255321 0
0.368934 -0.00413543 0
-0.177046 -0.00707374 0
-0.151445 0.0192028 0
-0.339167 -0.00534101 0
0.346735 0.00589053 0
-0.344301 -0.000446005 0
0.342022 -0.00147611 0
-0.226798 0.0167726 0
-0.041146 -0.0237415 0
-0.317432 0.00427928 0
0.345403 0.00792366 0
-0.352738 0.00219466 0
-0.363567 0.00596818 0
-0.368452 -0.000366207 0
-0.332181 -0.00603749 0
-0.347433 -0.00438365 0
0.366807 -0.00041442 0
-0.150336 -0.0178497 0
0.369262 -0.000519666 0
0.263619 0.0102727 0
0.233809 0.00643334 0
6.75856 6.97713 0
0.331742 0.00463386 0
-0.35162 -0.00352518 0
-0.300212 0.0194017 0
-0.357099 0.00223719 0
-0.307633 0.00929249 0
11.5741 14.6629 0
0.281979 0.00734969 0
-0.351063 0.0024852 0
-0.359272 0.00354469 0
4.89828 9.73707 0
-0.351882 0.00163929 0
-0.0353749 -0.0232592 0
0.359202 -0.00106741 0
-0.340266 -0.00310787 0
0.20124 -0.000749588 0
-0.321702 0.0062744 0
0.351094 -0.000266877 0
0.337677 -0.000664706 0
0.0896653 0.0162116 0
0.372715 0.00420118 0
-0.321661 -0.00517691 0
0.260077 -0.000448955 0
0.367022 -0.00266513 0
0.359056 -0.000414359 0
-0.37072 0.00120703 0
-0.332134 0.00347344 0
0.35468 -0.0011526 0
0.350554 -0.000914893 0
0.34494 -0.00170133 0
-0.0960717 0.00232927 0
0.242283 -0.0113607 0
0.258506 -0.00981974 0
0.270251 -0.0118576 0
0.320199 0.00848348 0
0.352079 -0.00292335 0
-0.0704937 -0.00983253 0
-0.351034 0.00496543 0
0.165299 -0.0146309 0
-0.280812 0.0207407 0
-0.373301 0.0019518 0
-0.19386 -0.0112498 0
-0.354083 0.00288333 0
0.293208 0.00767992 0
0.348271 0.00152953 0
-0.1045 -0.00847561 0
0.290744 -0.00898594 0
0.354548 0.00989109 0
0.348548 0.0034842 0
0.231072 -0.00809534 0
-0.352587 0.00228863 0
-0.19968 -0.00579658 0
0.361905 -0.000120332 0
0.245334 -0.00217674 0
-0.312073 -0.00262272 0
-0.349067 0.00203052 0
-0.358007 0.00202502 0
-0.0896702 0.00672725 0
0.301248 -0.00679499 0
0.326542 -0.0053646 0
0.326982 0.00437067 0
0.273098 0.00744118 0
-0.173946 -0.000519337 0
0.371565 -0.00420867 0
-0.344539 0.00213425 0
-0.0906902 -0.00515674 0
0.355033 0.00374842 0
-0.0914186 -0.00396336 0
-0.232598 0.0113948 0
-0.34409 0.00156325 0
-0.261022 -0.00744092 0
-0.348339 -0.00211462 0
-0.355027 -0.00515265 0
0.34219 1.61444e-05 0
-0.367766 0.00563461 0
-0.34894 0.00477331 0
0.359007 0.00454211 0
0.358626 -0.000730592 0
0.281334 -0.0175027 0
0.3727 -0.00289252 0
0.372177 0.000453482 0
0.357143 -0.00312008 0
0.0584925 0.0456552 0
0.365275 -0.00310992 0
0.310316 -0.00833965 0
-0.209714 -0.0124763 0
0.334626 0.00563477 0
-0.304056 0.00503571 0
0.354978 0.00089042 0
-0.290113 0.010102 0
-0.317272 0.00430088 0
-0.349473 0.00293933 0
0.350143 0.0044136 0
-0.305532 0.0209917 0
0.358176 0.00258808 0
0.328605 -0.0053191 0
-0.0988509 -0.00683859 0
0.373381 -0.00423366 0
-0.345489 -0.006643 0
25.905 27.0979 0
0.136675 -0.00494546 0
-0.308786 0.00901941 0
-0.244978 -0.00856772 0
0.342445 0.000366611 0
-0.150365 -0.0179565 0
0.294606 -0.0023994 0
-0.302239 0.00931808 0
-0.218404 -0.0131784 0
-0.355743 0.00523411 0
-0.368257 0.00674646 0
0.353675 -0.000174889 0
-0.351675 -0.000669618 0
-0.0531927 0.0197961 0
-0.314874 0.0112682 0
-0.366536 0.00398109 0
-0.357431 -0.00643438 0
0.370987 -0.00253655 0
0.0914249 0.0156815 0
-0.345213 0.00226782 0
0.364561 0.00106442 0
0.356869 -0.000578866 0
-0.319611 0.00880744 0
-0.347782 -0.000103314 0
-0.353266 -0.00311763 0
0.347718 0.0037981 0
0.177322 0.0198169 0
-0.0506237 0.0102106 0
-0.366195 0.00367072 0
-0.295669 0.00440388 0
0.277267 -0.0170552 0
-0.283557 -0.00264297 0
-0.353085 0.00241995 0
0.176261 -0.00221098 0
0.363655 -0.000111203 0
-0.247339 -0.00412034 0
-0.355941 0.00273834 0
-0.236649 -0.00973217 0
0.202396 0.00673805 0
0.352014 0.00507278 0
-0.347695 0.00609343 0
0.355275 -0.000633443 0
0.369722 0.00314414 0
0.25308 0.0128413 0
0.248353 0.00531689 0
-0.332429 0.00450482 0
0.346764 -0.00249641 0
-0.152252 -0.00609787 0
-0.317249 0.00705935 0
0.343664 1.82951e-05 0
-0.316193 0.00672191 0
0.301271 0.00867452 0
0.113243 0.0185437 0
0.202094 0.00114222 0
0.367894 0.000777031 0
-0.337972 0.00356085 0
0.0750735 -0.00634436 0
0.0674533 -0.020832 0
-0.270565 0.00344787 0
-0.349819 0.00102823 0
-0.350558 0.00163189 0
-0.347303 -0.000827132 0
0.350891 -0.000784949 0
0.350922 -0.000686247 0
0.357923 -0.000721094 0
-0.355546 -0.00231509 0
0.248647 0.00384399 0
-18.8139 52.5067 0
-0.370238 0.00387015 0
-0.358476 0.00190977 0
0.342514 -0.000194744 0
-0.341435 0.00161529 0
0.340811 0.00574344 0
-0.350415 -0.00139044 0
-0.32142 -0.000334228 0
-0.145157 -0.0183597 0
-0.342104 0.00178674 0
0.341922 -0.00124889 0
-0.303621 0.00899703 0
-0.368986 -0.00314602 0
-0.146674 0.018055 0
-0.351203 0.00302274 0
-0.354999 0.00292441 0
0.306192 -0.00226357 0
-0.142431 0.00585489 0
0.350879 -0.000767058 0
0.361346 -0.00238333 0
0.3277 0.016865 0
0.36321 0.00312795 0
0.350163 0.00521274 0
0.374541 0.00341591 0
-0.197786 0.0167829 0
-0.322991 0.00135726 0
-0.368877 0.00111633 0
0.370825 0.000760751 0
-0.065679 0.00544739 0
0.347429 -0.00137925 0
0.335508 0.00220342 0
0.358725 -0.000583215 0
0.0658674 0.0100563 0
-0.205685 0.0236858 0
0.325819 0.00573088 0
-0.0574001 -0.00118215 0
-0.198347 0.00920758 0
-0.30323 0.0100668 0
0.352236 0.0059292 0
-0.229695 0.0113611 0
0.325041 -0.00461167 0
0.255037 -0.00461227 0
-0.363833 0.00502346 0
0.288572 -0.013086 0
0.370263 -0.00445871 0
0.340634 -0.00212974 0
0.355244 0.00639593 0
-0.357272 0.00421789 0
-0.0960784 0.0139733 0
0.35345 0.00251349 0
0.359487 -0.000734102 0
0.252474 0.0333482 0
-0.338365 -0.000530178 0
-0.330069 0.00425928 0
0.369384 0.000484314 0
-0.34285 -0.00278265 0
0.345735 0.00219639 0
0.359113 -0.00200145 0
0.160856 -0.0199068 0
0.364634 0.00395147 0
-0.362673 0.00268174 0
-0.311482 -0.000711741 0
-0.231698 -0.00289033 0
0.0451068 -0.00724721 0
0.0641108 -0.0478041 0
-0.341556 0.0019183 0
0.18989 -0.0280595 0
-0.04765 0.042881 0
-0.360311 0.0051751 0
-0.254673 0.0113931 0
-0.358124 0.00353744 0
-0.146909 -0.0100556 0
0.360162 0.00597444 0
-0.257507 0.013624 0
-0.36037 0.000152438 0
-11.6856 14.2634 0
0.355872 -0.00505813 0
0.35616 -0.000846324 0
-0.287279 0.0116416 0
0.347997 0.00250906 0
0.344593 -0.000450859 0
inf -inf 0
0.117424 0.0124475 0
-0.354044 0.00316167 0
-0.277988 -0.00258009 0
0.37065 0.00303032 0
9.76194 -19.6895 0
0.337212 0.00519566 0
-0.35186 -0.00507789 0
-0.203835 0.00033912 0
-0.352536 -0.00258806 0
-0.353834 0.00587404 0
0.348741 -0.000986357 0
-0.350623 -0.00104716 0
-0.32602 0.0081164 0
0.27189 0.0106482 0
-0.354033 0.00026869 0
-0.297152 0.0124834 0
-0.309894 0.00707276 0
0.369203 0.00408986 0
0.325317 -0.00634714 0
-0.288105 0.0218461 0
0.363333 -0.00164012 0
-0.342442 -0.00406161 0
-0.311975 -0.0031412 0
-0.358021 0.0011769 0
41.3391 -45.6467 0
-0.348622 -0.00414162 0
0.350476 0.0030277 0
-0.35622 0.0027586 0
-0.351339 0.00179158 0
-0.0903144 0.0125066 0
0.333642 0.0170967 0
-0.128264 0.034836 0
0.0849793 0.0206693 0
-0.356559 0.00335621 0
-0.0889016 0.00272402 0
-0.356552 -0.000884546 0
-0.357036 0.00483258 0
0.339568 -0.00444451 0
0.303785 0.00911692 0
-0.317353 0.00520632 0
0.319675 0.00376845 0
0.278917 0.00138125 0
-0.339975 0.00170669 0
-0.20982 -0.00601206 0
0.238753 -0.0153556 0
-0.337336 0.000586264 0
0.318225 -0.00852938 0
0.129186 -0.00365993 0
-0.335418 -0.00109861 0
0.299302 -0.000780464 0
0.32824 -0.00209679 0
0.364379 -0.00438278 0
0.356459 -0.00124424 0
0.360707 8.43873e-05 0
0.346462 0.0061606 0
-0.340571 0.00166487 0
0.270614 0.00934213 0
-0.310073 -0.00366499 0
0.153151 0.0213719 0
-0.348081 0.00191715 0
-0.151236 -0.00479302 0
-0.319004 0.0115705 0
0.111699 -0.0122108 0
-0.361495 0.00297592 0
0.342563 -0.000703172 0
-0.0797056 0.0210237 0
0.136797 0.0118266 0
-0.364278 0.00278511 0
0.346003 0.001379 0
0.35599 -0.000526861 0
0.360312 0.0085131 0
0.368405 -0.0040069 0
-0.340833 0.0020182 0
[...]
      <PointData Scalars="T">
        <DataArray type="Float32" Name="T" format="ascii" NumberOfComponents="1">
14175.8
14382.6
14332.9
14332.9
14382.6
14382.6
14332.9
14234.9
14332.9
14382.6
14332.9
14175.8
14382.6
14234.9
14382.6
14175.8
14234.9
14476
14175.8
14382.6
14382.6
14175.8
14382.6
14332.9
14332.9
14175.8
14234.9
14332.9
14382.6
14382.6
14382.6
14234.9
14492.5
14332.9
14175.8
14332.9
13988.9
14382.6
14234.9
14234.9
14175.8
14175.8
14234.9
14495.4
14496.6
14382.6
14175.8
14332.9
14462.7
14332.9
14175.8
14234.9
14382.6
14175.8
14505.7
14382.6
14332.9
14175.8
14175.8
14332.9
14175.8
13697.1
14332.9
14332.9
14382.6
14507.4
14332.9
14332.9
14175.8
13812.6
14382.6
14175.8
14332.9
14175.8
14175.8
14234.9
14175.8
14382.6
14175.8
14503.2
14234.9
14382.6
14175.8
14511.1
14332.9
14382.6
14332.9
14234.9
14382.6
14234.9
14175.8
14234.9
14332.9
14382.6
14234.9
14382.6
14175.8
14382.6
14382.6
14234.9
14234.9
14234.9
14332.9
14234.9
14332.9
14175.8
14175.8
14175.8
14175.8
14234.9
14382.6
14382.6
14382.6
14175.8
14175.8
14382.6
14382.6
14175.8
14509.7
14234.9
14332.9
14234.9
14332.9
14382.6
14332.9
14332.9
14175.8
14175.8
14234.9
14332.9
14332.9
14332.9
14507.4
14382.6
14332.9
14332.9
14332.9
14382.6
14332.9
14332.9
14332.9
14175.8
14332.9
14234.9
14382.6
14332.9
14382.6
14382.6
14234.9
14382.6
14175.8
13841.2
14234.9
14332.9
14175.8
14175.8
14332.9
14382.6
14234.9
14332.9
14332.9
14234.9
14382.6
14382.6
14382.6
14332.9
14332.9
14175.8
14175.8
14234.9
14332.9
14382.6
14234.9
14175.8
14234.9
14382.6
14508.1
14234.9
14234.9
14234.9
14324
14382.6
14382.6
14175.8
14332.9
14332.9
14332.9
14501.9
14332.9
14175.8
14332.9
14332.9
14234.9
14175.8
14382.6
14486
14382.6
14382.6
14382.6
14175.8
14382.6
14175.8
14332.9
14234.9
14332.9
14234.9
14175.8
14332.9
14382.6
14234.9
14473.2
14234.9
14332.9
14382.6
14234.9
14382.6
14382.6
14332.9
14234.9
14382.6
14382.6
14382.6
14234.9
14332.9
14175.8
14382.6
14498.7
14332.9
14382.6
14234.9
14234.9
14175.8
14175.8
14382.6
14382.6
14382.6
14332.9
14234.9
14382.6
14332.9
14332.9
14234.9
14382.6
14234.9
14175.8
14175.8
14382.6
14332.9
14175.8
14175.8
14175.8
14382.6
14332.9
14234.9
14382.6
14324
14382.6
14175.8
14175.8
14479.6
14493.5
14382.6
14332.9
14332.9
14382.6
14499.3
14509.7
14234.9
14332.9
14332.9
14332.9
14234.9
14175.8
14382.6
14382.6
14477.4
14332.9
14509.7
14175.8
14234.9
14234.9
14234.9
14503.2
14332.9
14382.6
14234.9
14382.6
14382.6
14382.6
14332.9
14382.6
14332.9
14332.9
14175.8
14175.8
14175.8
14175.8
14382.6
14511.5
14504.3
14493.8
14382.6
14332.9
14175.8
14332.9
14175.8
14382.6
14175.8
14234.9
14382.6
14382.6
14175.8
14382.6
14332.9
14332.9
14382.6
14332.9
14332.9
14332.9
14175.8
14382.6
14382.6
14175.8
14332.9
14175.8
14234.9
14382.6
14502
14234.9
14175.8
14332.9
14332.9
14175.8
14382.6
14234.9
14234.9
14332.9
14332.9
14382.6
14332.9
14382.6
14382.6
14382.6
14382.6
14234.9
14175.8
14382.6
12638.2
14382.6
14332.9
14332.9
14382.6
14175.8
14332.9
14234.9
14175.8
14382.6
14234.9
14175.8
14332.9
14175.8
14234.9
14341.1
14234.9
14382.6
14332.9
14234.9
14382.6
14175.8
13729.9
14382.6
14382.6
14175.8
14332.9
14382.6
14332.9
14234.9
14234.9
14505.3
14332.9
14234.9
14175.8
14382.6
14501.9
14382.6
14175.8
14382.6
14175.8
14382.6
14382.6
14234.9
14382.6
14332.9
14175.8
14382.6
14175.8
14318.4
14506.8
14234.9
14332.9
14250.5
14332.9
14332.9
14234.9
14332.9
14332.9
14332.9
14332.9
14367
14175.8
14508.9
14175.8
14234.9
14175.8
14382.6
14234.9
14382.6
14332.9
14382.6
14332.9
14382.6
14175.8
14382.6
14325.9
14332.9
14175.8
14332.9
14382.6
14382.6
14332.9
14382.6
14175.8
14382.6
14175.8
14502.9
14234.9
14382.6
14507.6
14175.8
13956.3
14382.6
14332.9
14491.5
14234.9
14234.9
14382.6
14234.9
14175.8
14332.9
14234.9
13988.9
14234.9
14234.9
14332.9
14332.9
14234.9
14382.6
14502.9
14234.9
14488.8
14234.9
14332.9
14382.6
14234.9
14332.9
14175.8
14234.9
14234.9
14382.6
14382.6
14175.8
14516.7
14332.9
14332.9
14175.8
14382.6
14382.6
14382.6
14332.9
14175.8
11863.1
14234.9
14234.9
14509
13989.9
14175.8
14332.9
14501.9
14382.6
14175.8
14175.8
14487.5
14382.6
14175.8
14332.9
14234.9
14332.9
14382.6
14382.6
14382.6
14234.9
14234.9
14234.9
14234.9
14234.9
14332.9
14332.9
14332.9
14175.8
14332.9
14175.8
14175.8
14234.9
14175.8
14382.6
14332.9
14175.8
14382.6
14175.8
14382.6
14511
14382.6
14170.3
14175.8
14332.9
14175.8
14332.9
14332.9
14332.9
14382.6
14175.8
14175.8
14458.4
14175.8
14510.3
14382.6
14234.9
14332.9
14332.9
14382.6
14382.6
14234.9
14234.9
14234.9
14175.8
14175.8
14471.4
14175.8
14234.9
14382.6
14175.8
14382.6
14493.2
14175.8
14234.9
14382.6
14332.9
14382.6
14175.8
14175.8
14234.9
14175.8
14234.9
14332.9
14264.6
14382.6
14496.6
14332.9
14234.9
14234.9
14250.5
14382.6
14382.6
14175.8
14332.9
14332.9
14501.5
14175.8
14234.9
14510.7
14234.9
14234.9
14103
14175.8
14332.9
14382.6
14175.8
14234.9
14286.4
14175.8
14464.3
14382.6
14175.8
14234.9
14508.2
14175.8
14332.9
14234.9
14175.8
14382.6
14332.9
14332.9
14175.8
14497
14234.9
14234.9
14382.6
14511.2
14175.8
14234.9
14332.9
14234.9
14234.9
14175.8
14332.9
14234.9
14234.9
14382.6
14382.6
14332.9
14332.9
14382.6
14234.9
14234.9
14175.8
14332.9
14498.4
14382.6
14332.9
14332.9
14175.8
14175.8
14382.6
14234.9
14234.9
14234.9
14234.9
14175.8
14382.6
14175.8
14175.8
14234.9
14382.6
14332.9
14332.9
14234.9
14382.6
14332.9
14234.9
14234.9
14382.6
14332.9
14234.9
14382.6
14175.8
14382.6
14382.6
14332.9
14175.8
14506.8
14175.8
14332.9
14493.9
14175.8
14502
14382.6
14382.6
14332.9
14332.9
14332.9
14175.8
14175.8
14234.9
14234.9
14382.6
14382.6
14175.8
14382.6
14234.9
14496.3
14175.8
14382.6
14382.6
14382.6
14332.9
14175.8
14175.8
14175.8
14382.6
14332.9
14332.9
14504.2
14382.6
14175.8
14332.9
14175.8
14175.8
13990.5
14382.6
14175.8
14175.8
14332.9
14382.6
14175.8
14382.6
14332.9
14175.8
14332.9
14175.8
14332.9
14382.6
13650.3
14504.3
14175.8
14509.3
14382.6
14382.6
14332.9
14234.9
14175.8
14382.6
14332.9
14175.8
14234.9
14332.9
14504.5
14234.9
14515.7
14074.1
14382.6
14382.6
14332.9
14332.9
14332.9
14332.9
14332.9
12410.3
14175.8
14382.6
12984.6
14332.9
14332.9
14382.6
14496.1
14382.6
14175.8
14382.6
14382.6
14382.6
14234.9
14234.9
14501.1
14382.6
14175.8
14382.6
14234.9
14382.6
14234.9
14234.9
14332.9
14175.8
14332.9
14382.6
14234.9
14382.6
14382.6
14234.9
14382.6
14234.9
14175.8
14382.6
14234.9
14332.9
14332.9
14332.9
14508.6
14382.6
14234.9
14175.8
14234.9
14088.7
14382.6
14234.9
14234.9
14175.8
14332.9
14175.8
14469.5
14332.9
14382.6
14382.6
14332.9
14382.6
14175.8
14498.4
14175.8
14509
14234.9
14175.8
14382.6
14388.7
14382.6
14382.6
14332.9
14339.9
14234.9
14175.8
14332.9
14318.4
14175.8
14382.6
14234.9
14234.9
14175.8
14382.6
14493.2
14175.8
14332.9
14332.9
12237.1
14382.6
14175.8
14382.6
14382.6
14332.9
14332.9
14175.8
14332.9
14382.6
14234.9
14175.8
14382.6
14175.8
14175.8
14382.6
14382.6
13021.1
14503.7
14332.9
14332.9
14382.6
14482.7
14332.9
14450.1
14382.6
14234.9
14234.9
14175.8
13784
12515.3
14382.6
14382.6
14509.7
14234.9
14332.9
14382.6
14332.9
14382.6
14332.9
14332.9
14032.7
14332.9
14504.7
14175.8
14332.9
14382.6
14234.9
14175.8
14332.9
14175.8
14175.8
14175.8
14175.8
14382.6
14175.8
14332.9
14234.9
14332.9
14175.8
14382.6
14334.9
14332.9
14175.8
14382.6
14382.6
14234.9
14332.9
14234.9
14332.9
14234.9
14382.6
14382.6
14175.8
14234.9
14516.3
14234.9
14332.9
14506.3
14382.6
14332.9
14175.8
14234.9
14234.9
14332.9
14382.6
14332.9
14332.9
14234.9
14175.8
14234.9
14175.8
14332.9
14175.8
14332.9
14175.8
14175.8
14382.6
13736.9
14332.9
14332.9
14382.6
14332.9
14234.9
14382.6
14234.9
14332.9
14175.8
14490.8
14234.9
14382.6
14332.9
14382.6
14382.6
14359.9
14332.9
14234.9
14175.8
14382.6
14504.5
14332.9
14382.6
14175.8
14382.6
14234.9
14496.6
14234.9
14332.9
14382.6
14234.9
14382.6
14382.6
14382.6
14234.9
14234.9
14382.6
14382.6
14175.8
14509.1
14332.9
14332.9
14332.9
14332.9
14175.8
14382.6
14332.9
14382.6
14175.8
14382.6
14175.8
14202.5
14234.9
14175.8
14382.6
14332.9
14175.8
14332.9
14234.9
14332.9
14382.6
14501.1
14234.9
14234.9
14175.8
14234.9
14382.6
14382.6
14234.9
14332.9
14175.8
14175.8
14175.8
14234.9
14332.9
14234.9
14332.9
14008.6
14175.8
14175.8
14175.8
14332.9
14332.9
14234.9
14175.8
14175.8
14234.9
14382.6
14332.9
14382.6
14482.9
14382.6
14234.9
14382.6
13575.4
14234.9
14382.6
14175.8
14234.9
14175.8
14510.7
14332.9
14382.6
14175.8
14382.6
14382.6
14175.8
14175.8
14382.6
14332.9
14175.8
14367
14488.8
14234.9
14382.6
13550.3
14511.5
14332.9
14382.6
14457.7
14382.6
14382.6
14332.9
14332.9
14382.6
14175.8
14332.9
14332.9
14332.9
14382.6
14332.9
14175.8
14382.6
14382.6
14382.6
14234.9
14382.6
14332.9
14382.6
14332.9
14234.9
14497.1
14332.9
14175.8
14382.6
14234.9
14234.9
14382.6
14332.9
14175.8
14234.9
14332.9
14496.3
14234.9
14234.9
14332.9
14382.6
14388.7
14332.9
14175.8
14234.9
14382.6
14382.6
14382.6
14175.8
14505.7
14175.8
14511
14382.6
14332.9
14175.8
14175.8
14332.9
14175.8
14234.9
14508.9
14234.9
14382.6
14332.9
14175.8
14175.8
14175.8
14175.8
14175.8
14234.9
14382.6
14382.6
14382.6
14234.9
14382.6
14382.6
14452.3
14332.9
14332.9
14332.9
14332.9
14382.6
14332.9
14382.6
14501.1
14234.9
14382.6
14175.8
14382.6
14490.9
14332.9
14506.1
14332.9
14332.9
14332.9
14332.9
14175.8
14175.8
14332.9
14175.8
14234.9
14107.1
14382.6
14175.8
14175.8
14332.9
14234.9
14332.9
14234.9
14175.8
14175.8
14175.8
14175.8
14382.6
14332.9
14382.6
14175.8
14347.2
14332.9
14506.6
14505.1
14510.9
14332.9
14332.9
14234.9
14175.8
14382.6
14175.8
14332.9
14234.9
14382.6
14506.9
14332.9
14175.8
14382.6
14332.9
14382.6
14175.8
14382.6
14382.6
14511
14382.6
14332.9
14332.9
14234.9
14382.6
14382.6
14382.6
14332.9
14234.9
14175.8
14382.6
14175.8
14175.8
14382.6
14382.6
14175.8
14382.6
14332.9
14332.9
14332.9
14382.6
14354.4
14332.9
14234.9
14382.6
14332.9
14382.6
14332.9
14382.6
14484.9
14332.9
14234.9
14234.9
14332.9
14332.9
14175.8
14332.9
14175.8
14234.9
14175.8
14175.8
14382.6
14382.6
14332.9
14382.6
14175.8
14495.4
14501.7
14382.6
14175.8
14505.3
14500.4
14492.9
14332.9
14504.9
14382.6
14332.9
14382.6
14509.8
14234.9
14234.9
14382.6
14332.9
14332.9
14382.6
14382.6
14332.9
14234.9
14332.9
14175.8
14175.8
14382.6
14382.6
14332.9
14510.3
14175.8
14382.6
14175.8
14332.9
14382.6
14332.9
14332.9
14234.9
14382.6
14234.9
14234.9
14382.6
14382.6
14382.6
14382.6
14175.8
14332.9
14332.9
14382.6
14332.9
14382.6
14382.6
14332.9
14382.6
14382.6
14175.8
14382.6
14234.9
14332.9
14234.9
14234.9
14175.8
14382.6
14175.8
14175.8
14332.9
14332.9
14382.6
14175.8
14175.8
14382.6
14382.6
14175.8
14382.6
14382.6
14481.4
14332.9
14332.9
14234.9
14332.9
14382.6
13956.3
14332.9
14509.1
14505.9
14509
14332.9
14334.9
14382.6
14382.6
14382.6
14234.9
14175.8
14234.9
14332.9
14234.9
14234.9
14498
14175.8
14332.9
14234.9
14175.8
14332.9
14175.8
14498.8
14332.9
14490.5
14234.9
14382.6
14382.6
14264.6
14234.9
14234.9
14175.8
14175.8
14234.9
14382.6
14382.6
14332.9
14382.6
14382.6
14382.6
14234.9
14234.9
14332.9
14332.9
14175.8
14382.6
14175.8
14175.8
14332.9
14234.9
14332.9
13892.2
14175.8
14501.3
14175.8
14382.6
14428.3
14509.3
14382.6
14511
14332.9
14234.9
14234.9
14175.8
14382.6
14234.9
14382.6
14293.5
14382.6
14382.6
13457
14332.9
14234.9
14234.9
14382.6
14234.9
14382.6
14332.9
14234.9
14382.6
14332.9
14332.9
14332.9
14234.9
14234.9
14382.6
14175.8
14382.6
14234.9
14482.7
14382.6
14382.6
14382.6
14175.8
14382.6
14175.8
14175.8
14332.9
14234.9
14332.9
14267.9
14234.9
14509.3
14332.9
14175.8
14234.9
14382.6
14382.6
14332.9
14382.6
14234.9
14382.6
14175.8
14175.8
14332.9
14175.8
14234.9
14382.6
14382.6
14332.9
14175.8
14382.6
14175.8
14175.8
14234.9
14234.9
14234.9
14175.8
14175.8
14175.8
14382.6
14175.8
14508.1
14175.8
14382.6
14382.6
14382.6
14175.8
14332.9
14332.9
14332.9
14234.9
14332.9
14332.9
14511.1
14382.6
14175.8
14175.8
14332.9
14382.6
14332.9
14382.6
14332.9
14175.8
14332.9
14365.8
14234.9
14382.6
13550.3
14175.8
14332.9
14234.9
14332.9
14382.6
14175.8
14382.6
14175.8
14440.9
14175.8
14234.9
14393.6
14382.6
14175.8
14175.8
14332.9
14234.9
14332.9
14332.9
14332.9
14332.9
14175.8
14382.6
14175.8
14332.9
14382.6
14234.9
14234.9
14103
14382.6
14382.6
14515.7
14382.6
14332.9
14332.9
14234.9
14175.8
14382.6
14505.3
14382.6
14332.9
14234.9
14234.9
14175.8
14332.9
14175.8
14175.8
14175.8
14511.2
14175.8
14175.8
14332.9
14175.8
14382.6
14458.2
14504.5
14234.9
14234.9
14332.9
14234.9
14382.6
14382.6
14382.6
14382.6
14382.6
14509.8
14382.6
13163.9
14175.8
14332.9
14382.6
14332.9
14482.7
14332.9
14175.8
14382.6
14470.5
14332.9
14175.8
14175.8
14332.9
14341.1
14332.9
14494.6
14382.6
14175.8
14504.2
14175.8
14382.6
14332.9
14334.9
14382.6
14382.6
14234.9
14382.6
14234.9
14382.6
14332.9
14332.9
14332.9
14234.9
14175.8
14382.6
14332.9
14234.9
14175.8
14382.6
14382.6
14234.9
14382.6
14332.9
14332.9
14234.9
14332.9
14175.8
14234.9
14382.6
14332.9
14175.8
14382.6
14175.8
14175.8
14332.9
14332.9
14332.9
14234.9
14382.6
14234.9
14234.9
14175.8
14332.9
14175.8
14365.8
14332.9
14382.6
14506.3
14234.9
14332.9
14496.1
14332.9
14332.9
14382.6
14332.9
14175.8
14175.8
14175.8
14332.9
14175.8
14382.6
14382.6
14382.6
14175.8
14382.6
14382.6
14332.9
14487
14332.9
14497.1
14382.6
14175.8
14382.6
14175.8
14175.8
14382.6
14332.9
14234.9
14234.9
14234.9
14332.9
14234.9
14234.9
14511
14234.9
14234.9
14382.6
14234.9
14234.9
14500
14332.9
14382.6
14382.6
14175.8
14175.8
14332.9
14332.9
14175.8
14382.6
14382.6
14175.8
14234.9
14234.9
14175.8
14382.6
14234.9
14175.8
14175.8
14332.9
14382.6
14382.6
14332.9
14382.6
14382.6
14332.9
14234.9
13870.4
14449.9
14332.9
14332.9
14382.6
14382.6
14382.6
14332.9
14382.6
14382.6
14382.6
14382.6
14234.9
14382.6
14175.8
14234.9
14382.6
14480.5
14175.8
14382.6
14332.9
14382.6
14510.5
14175.8
14382.6
14234.9
14332.9
14332.9
14234.9
14234.9
14510.9
14332.9
14491.5
14382.6
14507.4
14234.9
14382.6
14234.9
14234.9
14175.8
14332.9
14234.9
14382.6
14332.9
14175.8
14332.9
14234.9
14332.9
14332.9
14175.8
14175.8
14382.6
14234.9
14382.6
14382.6
14175.8
14503.2
14175.8
14382.6
14234.9
14234.9
14332.9
14497.7
14234.9
14382.6
14332.9
14346.6
14175.8
14332.9
14175.8
14332.9
14332.9
14175.8
14480.5
14234.9
14234.9
14382.6
14332.9
14332.9
14234.9
14497.8
12479.2
14382.6
14382.6
14234.9
14382.6
14175.8
14332.9
14382.6
14234.9
13784
14175.8
14382.6
14332.9
14382.6
14332.9
14332.9
14332.9
14382.6
14175.8
14332.9
14332.9
14175.8
14234.9
14487
14234.9
14234.9
14332.9
14332.9
14234.9
14504.1
14175.8
14332.9
14332.9
14234.9
14234.9
14382.6
14175.8
14175.8
14234.9
14175.8
14332.9
14505.7
14332.9
14175.8
14382.6
14234.9
14113.1
14382.6
14382.6
14509.8
14382.6
14382.6
14175.8
14234.9
14493.8
14234.9
14234.9
14175.8
14511.2
14382.6
14382.6
14234.9
14332.9
14382.6
14234.9
14175.8
14382.6
12098.9
14480.5
14175.8
14332.9
14175.8
14332.9
14234.9
14234.9
14509.8
14234.9
14504.7
14382.6
14234.9
14382.6
14382.6
14332.9
14175.8
14175.8
14487.5
14488.1
14234.9
14346.6
14175.8
14175.8
14234.9
14234.9
14505.1
14332.9
14506.9
14382.6
14382.6
14332.9
14382.6
14332.9
14175.8
14501.5
14332.9
14382.6
14175.8
14382.6
14382.6
14234.9
14175.8
14382.6
14175.8
14486.3
14175.8
14354.4
14382.6
14234.9
14412.3
14332.9
14470.5
14175.8
14175.8
14501.9
14234.9
14332.9
14332.9
14382.6
14488.8
14382.6
14332.9
14332.9
14332.9
14382.6
14510.9
14382.6
14175.8
14382.6
14175.8
12410.3
13989.9
14332.9
14332.9
14332.9
14382.6
14175.8
14234.9
14175.8
14332.9
14175.8
14382.6
14234.9
14234.9
14382.6
14234.9
14234.9
14175.8
14382.6
14234.9
14332.9
14332.9
14175.8
14488.8
14382.6
14234.9
14234.9
14175.8
14382.6
13589.6
14234.9
14175.8
14382.6
13976.5
14332.9
14507.4
14175.8
14234.9
14332.9
14509.6
14234.9
14175.8
14382.6
14332.9
14234.9
14382.6
14332.9
14175.8
14234.9
14382.6
14382.6
14332.9
14382.6
14234.9
14332.9
12318.3
14175.8
14175.8
14508.1
14175.8
14332.9
14332.9
14332.9
13702.6
14234.9
14332.9
14175.8
14511.4
14175.8
14382.6
14234.9
14234.9
14382.6
14234.9
14332.9
14234.9
14175.8
14175.8
14175.8
14332.9
14175.8
14332.9
14332.9
14175.8
14234.9
13720.3
14175.8
14234.9
14332.9
14332.9
14175.8
14471.4
14234.9
14332.9
14332.9
14234.9
14175.8
14234.9
14234.9
14332.9
14382.6
14382.6
14332.9
14382.6
13999.5
14477.5
14175.8
14332.9
14332.9
14332.9
14332.9
14332.9
14497.3
14382.6
14234.9
14504.6
14175.8
14400.6
14382.6
14332.9
14332.9
14510.9
14332.9
14175.8
14332.9
14332.9
14332.9
14382.6
14175.8
14332.9
14382.6
14332.9
14234.9
14175.8
14332.9
14175.8
14382.6
14234.9
14175.8
14382.6
14382.6
14332.9
14332.9
14332.9
14382.6
14175.8
14490
14509.8
14490.8
14332.9
14332.9
14175.8
14234.9
14234.9
14332.9
14332.9
14175.8
14332.9
14234.9
14382.6
14332.9
14437.3
14175.8
14175.8
14332.9
14382.6
14175.8
14234.9
14234.9
14382.6
14382.6
13928.1
14175.8
14382.6
14499.3
14175.8
14234.9
14506.8
14504.5
14504.7
14382.6
14382.6
14234.9
14332.9
14332.9
14234.9
12950.7
13820
14175.8
14332.9
14234.9
14332.9
14332.9
14382.6
14332.9
14503.6
12039.6
14382.6
14382.6
14175.8
14175.8
14332.9
14234.9
14332.9
14234.9
14332.9
14332.9
14382.6
14234.9
14382.6
14450.1
13991.6
14175.8
14334.9
14234.9
14332.9
14382.6
14332.9
14382.6
14332.9
14382.6
14382.6
14175.8
14332.9
14234.9
14359.9
14382.6
12947.4
14382.6
14234.9
14234.9
14234.9
14332.9
14382.6
14234.9
14509.7
14234.9
14234.9
14332.9
14382.6
14332.9
14332.9
14175.8
14332.9
14175.8
14332.9
14382.6
14234.9
14500.4
14175.8
14175.8
14382.6
14332.9
14332.9
14332.9
14332.9
14382.6
14382.6
14175.8
14175.8
14332.9
14332.9
14511.1
14497.1
14234.9
14382.6
14382.6
14332.9
14382.6
14352.5
14234.9
14332.9
14382.6
14234.9
14175.8
14382.6
14175.8
14332.9
14175.8
14500.1
12479.2
14175.8
14332.9
14332.9
14332.9
14175.8
14234.9
14175.8
14332.9
14382.6
14332.9
14175.8
14332.9
14234.9
14175.8
14175.8
14234.9
14505.9
14511
14400.6
14332.9
14382.6
14382.6
14504.4
14234.9
14332.9
14332.9
14382.6
14234.9
14332.9
14234.9
14382.6
14382.6
14332.9
14175.8
14234.9
14382.6
14234.9
14332.9
14234.9
14234.9
14175.8
14175.8
14175.8
14175.8
14382.6
14234.9
14234.9
14234.9
14175.8
14332.9
14175.8
14332.9
14382.6
14382.6
14382.6
14382.6
14234.9
14382.6
14504.5
14065.2
12950.7
14332.9
14332.9
14234.9
14234.9
14382.6
14382.6
14382.6
14332.9
14234.9
14175.8
14175.8
14332.9
14234.9
14234.9
14332.9
14175.8
14332.9
14234.9
14175.8
14382.6
14382.6
14332.9
14332.9
14332.9
14332.9
14175.8
14175.8
14175.8
14175.8
14332.9
14332.9
14505.7
14332.9
14382.6
14175.8
14382.6
14382.6
14511.4
14332.9
14332.9
14504.5
14175.8
14382.6
14234.9
14382.6
14234.9
14332.9
14382.6
14502.9
14332.9
14486
14234.9
14382.6
14382.6
13438.4
14332.9
14332.9
14332.9
12146.3
14175.8
14462.7
14332.9
14504.7
14234.9
14332.9
14175.8
14175.8
14175.8
14107.1
14175.8
14234.9
14332.9
14486.3
14175.8
14382.6
14382.6
14382.6
14382.6
14382.6
14332.9
14234.9
14506.6
14382.6
14382.6
14382.6
13988.9
14412.3
14332.9
14382.6
14332.9
14332.9
14332.9
14332.9
14175.8
14382.6
14382.6
14234.9
14332.9
14509.7
14332.9
14234.9
14332.9
14510
14509.7
14382.6
14175.8
14234.9
14234.9
14175.8
14234.9
14175.8
14382.6
14332.9
14175.8
14175.8
14500.6
14175.8
14508.9
14234.9
14332.9
14382.6
14332.9
14332.9
14175.8
14175.8
14175.8
14382.6
14175.8
14490.9
14234.9
14358.1
14234.9
14234.9
14509.1
14234.9
14382.6
14382.6
14382.6
14332.9
14234.9
14382.6
14175.8
14332.9
14332.9
14234.9
14382.6
14497.7
14382.6
14382.6
14175.8
14234.9
14382.6
14234.9
14382.6
14234.9
14382.6
14382.6
13163.9
14175.8
14382.6
14234.9
14332.9
14332.9
14234.9
14382.6
14175.8
14489.2
14175.8
14382.6
14382.6
14332.9
14234.9
14382.6
14234.9
14494.3
14332.9
14332.9
13942.7
14175.8
12950.7
14175.8
14332.9
14382.6
14234.9
14504.3
14502.5
14234.9
14382.6
14175.8
14382.6
14175.8
14452.3
14382.6
14332.9
14175.8
14234.9
14234.9
14492.5
14382.6
14382.6
14175.8
14382.6
14506.8
14382.6
14382.6
14234.9
14382.6
14234.9
14382.6
14382.6
14175.8
14234.9
14234.9
14382.6
14234.9
14175.8
13928.1
14175.8
14175.8
14382.6
14234.9
14332.9
14382.6
14382.6
12479.2
14332.9
14332.9
14382.6
14234.9
14175.8
14332.9
14234.9
14382.6
14234.9
14332.9
14382.6
14332.9
14382.6
14234.9
14175.8
14175.8
14382.6
14234.9
14332.9
14332.9
14382.6
14234.9
14382.6
14382.6
14506.6
14332.9
14175.8
14175.8
14175.8
14175.8
14382.6
14332.9
14332.9
14175.8
14382.6
14234.9
14484.9
14234.9
14175.8
14332.9
14332.9
14332.9
14382.6