<?xml version="1.0"?>
<VTKFile type="PolyData" version="0.1" byte_order="LittleEndian">
  <PolyData>
    <Piece NumberOfPoints="50000" NumberOfVerts="50000" NumberOfLines="0" NumberOfStrips="0" NumberOfPolys="0">
      <Points>
        <DataArray type="Float32" NumberOfComponents="3" format="ascii">
0.383095 0.00791532 0
-0.364169 0.00264691 0
0.371257 -0.00276715 0
0.387667 -0.00228608 0
-0.3169 0.00590113 0
-0.266276 0.00195285 0
0.127443 -0.0250268 0
-0.32741 -0.000123291 0
0.112413 -0.0195417 0
-0.0260369 0.00848701 0
0.291221 -0.0123134 0
0.369751 0.00718845 0
-0.213488 0.00663311 0
-0.1517 -0.0235774 0
-0.397841 0.00207479 0
0.300278 0.0115142 0
-0.0557313 -0.0021883 0
0.384523 0.00132155 0
0.145685 0.00118079 0
-0.364662 0.0034487 0
-0.38204 0.00519157 0
0.333237 0.00624082 0
-0.377121 0.00233905 0
0.374865 -0.000270479 0
0.238785 -0.0123939 0
0.279277 0.0121826 0
-0.374025 -0.00735593 0
0.384997 -0.00351247 0
-0.267861 0.0224284 0
-0.393651 0.00861843 0
-0.296392 0.0114703 0
-0.275597 -0.0159659 0
0.381328 0.000511958 0
0.383882 -0.0012559 0
0.0729696 0.00475751 0
0.390333 -0.00182579 0
0.118398 0.00125503 0
-0.39035 0.0023425 0
-0.365409 -0.00513315 0
-0.406113 -0.00250331 0
0.281521 0.0124131 0
0.29756 0.00570182 0
-0.372865 -0.0023381 0
0.378911 0.000422679 0
0.392678 0.00101562 0
-0.383965 0.0083001 0
0.373344 0.00449682 0
0.191396 -0.014536 0
0.368599 8.3238e-05 0
0.377369 -7.64402e-05 0
0.158184 0.0204797 0
-0.376414 -0.00106608 0
-0.261809 0.0089647 0
0.372457 0.00256976 0
-0.370601 0.00229923 0
-0.395063 0.0024442 0
0.383568 -0.00145624 0
0.154801 0.010997 0
0.286865 0.00708172 0
0.396012 -0.00492223 0
0.323391 0.0044029 0
0.387652 0.0023229 0
0.0853483 -0.0310022 0
0.395978 -0.00190466 0
-0.1278 0.0161374 0
-0.369466 0.00136172 0
0.376345 -0.00107156 0
0.38666 -0.000810782 0
0.399958 0.00368868 0
0.276836 0.000771479 0
-0.373857 0.00312394 0
0.375816 0.00340403 0
0.205231 0.00101413 0
0.20982 0.00639955 0
0.1789 0.0048083 0
-0.379305 -0.0023932 0
0.328619 0.0118204 0
-0.360158 0.00415145 0
0.289819 0.00644586 0
-0.39421 0.00158221 0
-0.198858 -0.0323293 0
-0.386178 0.00423494 0
0.355304 0.00472514 0
-0.375369 0.00065411 0
0.395523 -0.00470492 0
-0.376371 0.00320648 0
0.396212 -0.00461415 0
-0.169472 -0.00817119 0
-0.163985 0.0219209 0
-0.379574 -0.00676756 0
0.372426 0.00621666 0
-0.371297 -0.000557809 0
0.37431 -0.00185347 0
-0.256075 0.0186503 0
-0.0387918 -0.0208661 0
-0.334086 0.00504526 0
0.37359 0.00817119 0
-0.382817 0.00314431 0
-0.403811 0.00704126 0
-0.400517 -0.000937534 0
-0.335844 -0.00717357 0
-0.372682 -0.00533333 0
0.398822 -0.000727787 0
-0.161613 -0.0196522 0
0.401645 -0.000600925 0
0.32882 0.0119863 0
0.2419 0.00629509 0
0.0192641 0.007466 0
0.369167 0.00422005 0
-0.377692 -0.00436586 0
-0.284943 0.0187072 0
-0.383202 0.00305855 0
-0.327099 0.0100396 0
282.069 408.029 0
0.251789 0.00692834 0
-0.377675 0.00343782 0
-0.391633 0.00425027 0
7.24568 9.91184 0
-0.380411 0.00161471 0
-0.0195155 -0.008285 0
0.385141 -0.00143522 0
-0.366954 -0.00355901 0
0.259897 -0.00337817 0
-0.35092 0.00706411 0
0.378045 -0.000729722 0
0.367437 -0.00097562 0
0.120708 0.022674 0
0.388376 0.00412734 0
-0.340308 -0.00651663 0
0.293104 -0.000919663 0
0.390579 -0.00308568 0
0.387458 -0.000465227 0
-0.4022 0.000747767 0
-0.33555 0.00386361 0
0.396791 -0.00178513 0
0.377135 -0.00104978 0
0.36369 -0.00272038 0
-0.0607271 0.00296414 0
0.304101 -0.0134767 0
0.295852 -0.0113306 0
0.303972 -0.0136937 0
0.360751 0.00908308 0
0.389764 -0.00328796 0
-0.0907351 -0.0132647 0
-0.389895 0.00641294 0
0.25885 -0.0213837 0
-0.249831 0.0190015 0
-0.384639 0.00191518 0
-0.275159 -0.0188599 0
-0.385844 0.00352016 0
0.294162 0.00697249 0
0.374605 0.00209615 0
-0.117345 -0.0112139 0
0.305069 -0.00981668 0
0.303369 0.00789485 0
0.371454 0.00363249 0
0.254364 -0.0092363 0
-0.378091 0.00265842 0
-0.163351 -0.00568696 0
0.388659 -0.000430919 0
0.259665 -0.00161228 0
-0.343126 -0.00281756 0
-0.371485 0.00240593 0
-0.386238 0.00246854 0
-0.100088 0.00945371 0
0.299397 -0.00605433 0
0.338418 -0.00536265 0
0.342795 0.00344014 0
0.28654 0.00745323 0
-0.158923 0.000524276 0
0.400308 -0.00472519 0
-0.370297 0.00295696 0
-0.0880964 -0.00562618 0
0.386871 0.00404915 0
-0.0709161 -0.00331313 0
-0.299143 0.0148943 0
-0.371298 0.00236512 0
-0.226087 -0.0104933 0
-0.376409 -0.00221428 0
-0.378047 -0.00625982 0
0.370912 -0.000162318 0
-0.382391 0.00608817 0
-0.376586 0.00513462 0
0.382918 0.00499869 0
0.373586 -0.000947639 0
0.288895 -0.0164875 0
0.401161 -0.00333175 0
0.396944 0.000331956 0
0.384869 -0.00359109 0
0.0428973 0.0280281 0
0.391435 -0.00356045 0
0.317009 -0.00872825 0
-0.255417 -0.0174685 0
0.352848 0.00602843 0
-0.349969 0.0060235 0
0.370835 0.00157494 0
-0.311873 0.0111165 0
-0.332296 0.0050105 0
-0.372854 0.00364371 0
0.375495 0.00461638 0
-0.249232 0.0179622 0
0.395917 0.00249961 0
0.343432 -0.00526613 0
-0.078525 -0.00678308 0
0.400959 -0.00482168 0
-0.367466 -0.00762587 0
0.0520674 0.045404 0
0.158902 -0.00638057 0
-0.332826 0.0101377 0
-0.234614 -0.0097053 0
0.367209 0.000466904 0
-0.163773 -0.0199823 0
0.346054 -0.00355605 0
-0.321666 0.0104369 0
-0.220633 -0.0150696 0
-0.386167 0.0057423 0
-0.381019 0.00729488 0
0.380617 -0.000362691 0
-0.391701 -0.00137648 0
-0.0462373 0.0199178 0
-0.301383 0.0111123 0
-0.390895 0.0034203 0
-0.362987 -0.00612714 0
0.397621 -0.00289238 0
0.140774 0.0234125 0
-0.371519 0.0028565 0
0.399728 0.00099551 0
0.383457 -0.000882951 0
-0.330274 0.00924141 0
-0.389311 -0.000609972 0
-0.383122 -0.0036906 0
0.373016 0.00395856 0
0.194413 0.0223875 0
-0.059338 0.014212 0
-0.396534 0.00417373 0
-0.341448 0.00556036 0
0.293375 -0.0167444 0
-0.300607 -0.00430091 0
-0.378958 0.00312349 0
0.232336 -0.00286057 0
0.39238 -0.000122266 0
-0.347932 -0.00650791 0
-0.383307 0.0031616 0
-0.22189 -0.0133967 0
0.191599 0.00643192 0
0.342647 0.00389786 0
-0.361951 0.00664594 0
0.383781 -0.000880216 0
0.395162 0.00244591 0
0.226594 0.011867 0
0.236363 0.00409107 0
-0.360446 0.00476332 0
0.370806 -0.00288113 0
-0.17073 -0.00900877 0
-0.34871 0.00768985 0
0.371345 -0.000356256 0
-0.337992 0.00749772 0
0.328722 0.00847812 0
0.142447 0.0221984 0
0.205513 0.000181627 0
0.394968 0.000781268 0
-0.360313 0.00459897 0
0.0720785 -0.00791972 0
0.0359997 -0.0133627 0
-0.257086 0.00319759 0
-0.378418 0.000959941 0
-0.372677 0.00272944 0
-0.370058 -0.001382 0
0.380393 -0.0010689 0
0.377477 -0.000854398 0
0.388829 -0.000997121 0
-0.381801 -0.00277869 0
0.249469 0.00284965 0
0.0205206 0.0118035 0
-0.398764 0.00473702 0
-0.387738 0.00212589 0
0.369445 -0.000466215 0
-0.370594 0.00280941 0
0.366879 0.00610792 0
-0.375975 -0.00143772 0
-0.364623 -0.000190471 0
-0.168944 -0.0218623 0
-0.381961 0.0022894 0
0.360729 -0.00217094 0
-0.324669 0.0101409 0
-0.365717 -0.00311879 0
-0.145239 0.0188467 0
-0.380829 0.00305823 0
-0.386862 0.00356465 0
0.325347 -0.00302772 0
-0.135922 0.00638709 0
0.379864 -0.000988643 0
0.388199 -0.00286122 0
0.247509 0.0131338 0
0.394348 0.00306302 0
0.374334 0.00580476 0
0.392832 0.00392396 0
-0.261876 0.0220919 0
-0.357741 0.00190157 0
-0.397743 0.000828753 0
0.402843 0.00077577 0
-0.0539496 0.00694785 0
0.378599 -0.00177392 0
0.369487 0.00303478 0
0.389861 -0.000806277 0
0.0667158 0.0115199 0
-0.200798 0.0237018 0
0.3283 0.00502581 0
-0.0461198 0.000314335 0
-0.186947 0.00881631 0
-0.312874 0.0109097 0
0.379716 0.00622344 0
-0.277028 0.013748 0
0.351489 -0.00518614 0
0.289652 -0.00459289 0
-0.396428 0.00591664 0
0.309012 -0.0140517 0
0.398696 -0.00503915 0
0.356509 -0.00295499 0
0.380975 0.00694029 0
-0.386759 0.00505546 0
-0.0849265 0.014227 0
0.388801 0.00188355 0
0.386989 -0.000991529 0
0.178547 0.0234678 0
-0.369052 -0.000469498 0
-0.362088 0.00473062 0
0.3984 0.000377482 0
-0.37015 -0.00292467 0
0.384222 0.00226937 0
0.386962 -0.00241074 0
0.185292 -0.0223179 0
0.370711 0.0032548 0
-0.379864 0.00310656 0
-0.325019 -0.000633052 0
-0.218311 -0.00246131 0
0.0305781 -0.00741861 0
0.0461205 -0.0279455 0
-0.348459 0.00315524 0
0.17236 -0.0247767 0
-0.0407391 0.0384548 0
-0.392209 0.00574187 0
-0.280345 0.0128867 0
-0.382886 0.00419011 0
-0.158783 -0.0129472 0
0.386729 0.00643299 0
-0.272234 0.0144823 0
-0.387537 -7.92862e-05 0
-62.1985 257.267 0
0.385882 -0.00507528 0
0.38487 -0.00113908 0
-0.315887 0.013389 0
0.374173 0.00273248 0
0.354988 -0.00103663 0
-556.319 -994.888 0
0.117968 0.0138352 0
-0.383574 0.00350596 0
-0.318989 -0.00238377 0
0.382149 0.00328038 0
3.9348 -8.10611 0
0.361716 0.00466774 0
-0.375401 -0.00572345 0
-0.239758 0.000208664 0
-0.381242 -0.00313292 0
-0.388686 0.00637349 0
0.379289 -0.00103317 0
-0.394767 -0.00138398 0
-0.342282 0.00866867 0
0.297662 0.0118653 0
-0.372013 3.71349e-05 0
-0.31009 0.0134029 0
-0.343994 0.00776007 0
0.38324 0.0039367 0
0.345553 -0.00668414 0
-0.229112 0.0180397 0
0.393984 -0.00204269 0
-0.383755 -0.00537197 0
-0.357029 -0.00347259 0
-0.387903 0.00118916 0
0.0334785 -0.0296194 0
-0.373454 -0.00508125 0
0.377985 0.00397104 0
-0.380648 0.00347813 0
-0.378585 0.00187962 0
-0.0933898 0.0143205 0
0.247525 0.012955 0
-0.123885 0.0345728 0
0.0814193 0.0195557 0
-0.384074 0.00370475 0
-0.0695432 0.00340771 0
-0.384773 -0.000923556 0
-0.386763 0.00520739 0
0.369446 -0.00559619 0
0.325476 0.00890215 0
-0.361861 0.00607595 0
0.343326 0.00457208 0
0.341041 0.00124507 0
-0.369061 0.00289679 0
-0.203807 -0.00674207 0
0.269802 -0.0163968 0
-0.369498 0.000794194 0
0.326748 -0.00849364 0
0.149556 -0.00458721 0
-0.379812 -0.000945206 0
0.35495 -0.000621604 0
0.373395 -0.00224614 0
0.379179 -0.00452441 0
0.386299 -0.00152111 0
0.392863 -1.08554e-05 0
0.372313 0.00649537 0
-0.382279 0.00263085 0
0.274766 0.00915843 0
-0.315875 -0.00478868 0
0.180463 0.0253618 0
-0.359918 0.00259171 0
-0.12866 -0.00531337 0
-0.298531 0.0111565 0
0.108888 -0.0133222 0
-0.390236 0.00371426 0
0.372822 -0.00105212 0
-0.105252 0.0280679 0
0.133485 0.0147659 0
-0.395485 0.00321629 0
0.375527 0.00174826 0
0.387095 -0.000682197 0
0.369766 0.0081625 0
0.395304 -0.00446905 0
-0.377068 0.00309802 0
[...]
      <PointData Scalars="T">
        <DataArray type="Float32" Name="T" format="ascii" NumberOfComponents="1">
314.698
428.559
314.12
314.12
428.559
428.559
314.12
441.623
314.12
428.559
314.12
314.698
428.559
441.623
428.559
314.698
441.623
304.22
302.96
428.559
428.559
314.698
428.559
314.12
314.12
314.698
441.623
314.12
428.559
428.559
428.559
441.623
305.09
314.12
314.698
314.12
303.039
428.559
441.623
441.623
314.698
314.698
441.623
307.413
301.475
428.559
314.698
314.12
321.418
314.12
314.698
441.623
428.559
314.698
428.559
428.559
314.12
314.698
314.698
314.12
314.698
314.698
314.12
314.12
428.559
773.44
314.12
314.12
314.698
302.394
428.559
314.698
301.475
314.698
314.698
441.623
314.698
428.559
314.698
696.443
441.623
428.559
314.698
688.25
314.12
428.559
314.12
441.623
428.559
441.623
314.698
441.623
314.12
428.559
441.623
428.559
314.698
428.559
428.559
441.623
441.623
441.623
314.12
441.623
314.12
314.698
314.698
314.698
314.698
441.623
428.559
428.559
428.559
314.698
314.698
428.559
428.559
314.698
707.881
441.623
314.12
441.623
314.12
428.559
314.12
314.12
314.698
314.698
441.623
314.12
314.12
314.12
800.772
428.559
314.12
314.12
314.12
428.559
314.12
314.12
314.12
314.698
314.12
441.623
428.559
314.12
428.559
428.559
441.623
428.559
314.698
314.698
441.623
314.12
314.698
314.698
314.12
428.559
441.623
314.12
314.12
441.623
428.559
428.559
428.559
314.12
314.12
314.698
314.698
707.484
314.12
428.559
441.623
314.698
441.623
428.559
428.559
441.623
441.623
441.623
314.12
428.559
428.559
314.698
314.12
314.12
314.12
310.773
314.12
314.698
314.12
314.12
441.623
314.698
428.559
309.576
428.559
428.559
428.559
314.698
428.559
314.698
314.12
441.623
314.12
441.623
314.698
314.12
428.559
441.623
306.62
441.623
314.12
428.559
441.623
428.559
428.559
314.12
441.623
428.559
428.559
428.559
441.623
314.12
314.698
428.559
301.495
314.12
428.559
441.623
441.623
314.698
314.698
428.559
428.559
428.559
314.12
441.623
428.559
314.12
314.12
441.623
428.559
441.623
314.698
314.698
428.559
314.12
314.698
314.698
314.698
428.559
314.12
441.623
428.559
314.12
428.559
314.698
314.698
315.125
302.238
428.559
314.12
314.12
428.559
735.237
428.559
441.623
314.12
314.12
314.12
441.623
314.698
314.698
428.559
428.559
314.12
428.559
314.698
441.623
441.623
441.623
428.559
314.12
428.559
441.623
428.559
428.559
428.559
314.12
428.559
314.12
314.12
314.698
314.698
314.698
314.698
428.559
681.47
716.865
302.394
428.559
314.12
314.698
314.12
314.698
428.559
314.698
676.809
428.559
428.559
314.698
428.559
314.12
314.12
428.559
314.12
314.12
314.12
314.698
428.559
428.559
324.528
314.12
314.698
441.623
428.559
309.139
441.623
314.698
314.12
314.12
314.698
428.559
441.623
441.623
314.12
314.12
428.559
314.12
428.559
428.559
428.559
428.559
441.623
314.698
428.559
441.623
428.559
314.12
314.12
428.559
314.698
314.12
441.623
314.698
428.559
441.623
314.698
314.12
314.698
441.623
688.074
441.623
428.559
314.12
441.623
428.559
314.698
727.936
428.559
428.559
314.698
314.12
428.559
314.12
441.623
441.623
768.028
314.12
441.623
314.698
428.559
679.219
428.559
314.698
428.559
314.698
428.559
428.559
441.623
428.559
314.12
314.698
428.559
314.698
303.07
428.559
441.623
314.12
708.138
314.12
314.12
441.623
314.12
314.12
314.12
314.12
314.12
314.698
428.559
314.698
441.623
314.698
428.559
441.623
428.559
314.12
428.559
314.12
428.559
314.698
428.559
317.487
314.12
314.698
314.12
428.559
428.559
314.12
428.559
314.698
428.559
314.698
754.606
441.623
428.559
428.559
314.698
303.849
428.559
314.12
665.614
441.623
441.623
428.559
441.623
314.698
314.12
441.623
314.698
441.623
441.623
314.12
314.12
441.623
428.559
696.228
441.623
303.847
441.623
313.334
428.559
441.623
314.12
314.698
441.623
441.623
428.559
428.559
314.698
693.064
314.12
314.12
314.698
428.559
428.559
428.559
314.12
314.698
709.914
441.623
441.623
428.559
303.354
314.698
314.12
301.672
428.559
314.698
314.698
301.499
428.559
314.698
314.12
441.623
314.12
428.559
428.559
428.559
441.623
441.623
441.623
441.623
441.623
314.12
314.12
314.12
314.698
314.12
314.698
314.698
441.623
314.698
428.559
314.12
314.698
428.559
314.698
428.559
701.841
428.559
697.629
314.698
314.12
314.698
314.12
314.12
314.12
428.559
314.698
314.698
663.884
314.698
675.273
428.559
441.623
314.12
314.12
428.559
428.559
441.623
441.623
441.623
314.698
314.698
321.121
314.698
441.623
428.559
314.698
428.559
306.271
314.698
441.623
428.559
314.12
428.559
314.698
314.698
441.623
314.698
441.623
314.12
753.758
428.559
302.96
314.12
441.623
441.623
730.117
428.559
428.559
314.698
314.12
314.12
303.098
314.698
441.623
696.71
441.623
441.623
428.559
314.698
314.12
428.559
314.698
441.623
301.498
314.698
314.153
428.559
314.698
441.623
771.102
314.698
314.12
441.623
314.698
428.559
314.12
314.12
314.698
314.12
441.623
441.623
428.559
812.398
314.698
441.623
314.12
441.623
441.623
314.698
314.12
441.623
441.623
428.559
428.559
314.12
314.12
428.559
441.623
441.623
314.698
314.12
428.559
428.559
314.12
314.12
314.698
314.698
428.559
441.623
441.623
441.623
441.623
314.698
428.559
314.698
314.698
441.623
428.559
314.12
314.12
441.623
428.559
314.12
441.623
441.623
428.559
314.12
441.623
428.559
314.698
428.559
428.559
314.12
314.698
428.559
314.698
314.12
428.559
314.698
314.12
428.559
428.559
314.12
314.12
314.12
314.698
314.698
441.623
441.623
428.559
428.559
314.698
428.559
441.623
304.739
314.698
428.559
428.559
428.559
314.12
314.698
314.698
314.698
428.559
314.12
314.12
745.157
428.559
314.698
314.12
314.698
314.698
314.698
428.559
314.698
314.698
314.12
428.559
314.698
428.559
314.12
314.698
314.12
314.698
314.12
428.559
321.121
734.247
314.698
428.559
428.559
428.559
314.12
441.623
314.698
428.559
314.12
314.698
441.623
314.12
727.734
441.623
441.623
428.559
428.559
428.559
314.12
314.12
314.12
314.12
314.12
682.144
314.698
428.559
441.623
314.12
314.12
428.559
303.847
428.559
314.698
428.559
428.559
428.559
441.623
441.623
304.611
428.559
314.698
428.559
441.623
428.559
441.623
441.623
314.12
314.698
314.12
428.559
441.623
428.559
680.751
441.623
428.559
441.623
314.698
428.559
441.623
314.12
314.12
314.12
428.559
428.559
441.623
314.698
441.623
303.137
428.559
441.623
441.623
314.698
314.12
314.698
308.618
314.12
428.559
428.559
314.12
428.559
314.698
428.559
314.698
428.559
441.623
314.698
428.559
306.834
428.559
428.559
314.12
302.96
441.623
314.698
314.12
305.634
314.698
428.559
441.623
441.623
314.698
428.559
308.148
314.698
314.12
314.12
441.623
428.559
311.131
428.559
428.559
314.12
314.12
314.698
314.12
428.559
441.623
314.698
428.559
314.698
314.698
428.559
428.559
314.698
796.175
314.12
314.12
428.559
428.559
314.12
304.57
428.559
441.623
441.623
314.698
306.205
696.71
428.559
428.559
692.663
441.623
314.12
428.559
314.12
428.559
314.12
314.12
708.324
314.12
428.559
314.698
314.12
428.559
441.623
314.698
314.12
314.698
314.698
314.698
314.698
428.559
314.698
314.12
441.623
314.12
314.698
428.559
314.12
314.12
314.698
428.559
428.559
441.623
314.12
441.623
314.12
441.623
428.559
428.559
314.698
441.623
441.623
441.623
314.12
745.07
428.559
314.12
314.698
441.623
441.623
314.12
428.559
314.12
314.12
441.623
314.698
441.623
314.698
314.12
314.698
314.12
314.698
314.698
428.559
314.698
314.12
314.12
428.559
314.12
441.623
428.559
441.623
314.12
314.698
428.559
441.623
428.559
314.12
428.559
428.559
314.12
314.12
314.698
314.698
428.559
428.559
314.12
428.559
314.698
428.559
441.623
307.339
441.623
314.12
428.559
441.623
428.559
428.559
428.559
687.582
441.623
428.559
428.559
314.698
717.109
314.12
314.12
314.12
314.12
314.698
428.559
314.12
428.559
314.698
428.559
314.698
314.698
441.623
314.698
428.559
314.12
314.698
314.12
441.623
314.12
428.559
303.716
441.623
441.623
314.698
441.623
428.559
428.559
441.623
314.12
314.698
314.698
314.698
441.623
314.12
441.623
314.12
310.862
314.698
314.698
314.698
314.12
314.12
441.623
314.698
314.698
441.623
428.559
314.12
428.559
301.499
428.559
441.623
428.559
693.064
441.623
428.559
314.698
441.623
314.698
428.559
314.12
428.559
314.698
428.559
428.559
314.698
314.698
428.559
314.12
314.698
314.12
306.271
441.623
428.559
441.623
807.051
314.12
428.559
316.087
428.559
428.559
314.12
314.12
428.559
314.698
314.12
314.12
314.12
428.559
314.12
314.698
428.559
428.559
428.559
441.623
428.559
314.12
428.559
314.12
441.623
316.969
314.12
314.698
428.559
441.623
441.623
428.559
314.12
314.698
441.623
314.12
302.5
441.623
441.623
314.12
428.559
304.22
314.12
314.698
441.623
428.559
428.559
428.559
314.698
753.838
314.698
693
428.559
314.12
314.698
314.698
314.12
314.698
441.623
736.071
441.623
428.559
314.12
314.698
314.698
314.698
314.698
314.698
441.623
428.559
428.559
428.559
441.623
428.559
428.559
317.467
314.12
314.12
314.12
314.12
428.559
314.12
428.559
305.09
441.623
428.559
314.698
428.559
785.844
314.12
782.699
314.12
314.12
314.12
314.12
314.698
314.698
314.12
314.698
441.623
301.498
428.559
314.698
314.698
314.12
441.623
314.12
441.623
314.698
314.698
314.698
314.698
428.559
314.12
428.559
314.698
314.12
314.12
762.531
762.04
779.706
314.12
314.12
441.623
314.698
428.559
314.698
314.12
441.623
428.559
687.013
314.12
314.698
428.559
314.12
428.559
314.698
428.559
428.559
668.514
428.559
314.12
314.12
441.623
428.559
428.559
428.559
314.12
441.623
314.698
428.559
314.698
314.698
428.559
428.559
314.698
428.559
314.12
314.12
314.12
428.559
306.808
314.12
441.623
428.559
314.12
428.559
314.12
428.559
428.559
314.12
441.623
441.623
314.12
314.12
314.698
314.12
314.698
441.623
314.698
314.698
428.559
428.559
314.12
428.559
314.698
301.475
693.064
428.559
314.698
762.986
678.986
302.419
314.12
441.623
428.559
314.12
428.559
717.109
441.623
441.623
428.559
314.12
314.12
428.559
428.559
314.12
441.623
314.12
314.698
314.698
428.559
428.559
314.12
678.986
314.698
428.559
314.698
314.12
682.568
314.12
314.12
441.623
428.559
441.623
441.623
428.559
428.559
428.559
428.559
314.698
314.12
314.12
428.559
314.12
428.559
428.559
314.12
428.559
428.559
314.698
428.559
441.623
314.12
441.623
441.623
314.698
428.559
314.698
314.698
314.12
314.12
428.559
314.698
306.183
428.559
428.559
314.698
428.559
428.559
313.66
314.12
314.12
441.623
314.12
428.559
308.475
314.12
744.697
428.559
428.559
314.12
314.12
428.559
428.559
428.559
441.623
314.698
441.623
314.12
441.623
441.623
314.12
314.698
314.12
441.623
314.698
314.12
314.698
706.022
314.12
734.696
441.623
428.559
428.559
688.074
441.623
441.623
314.698
314.698
441.623
428.559
428.559
314.12
428.559
428.559
428.559
441.623
441.623
314.12
314.12
314.698
428.559
314.698
314.698
314.12
441.623
314.12
314.953
314.698
303.963
314.698
428.559
733.932
759.967
428.559
428.559
314.12
441.623
441.623
314.698
428.559
441.623
428.559
687.876
428.559
428.559
441.623
314.12
441.623
441.623
428.559
441.623
428.559
314.12
441.623
428.559
314.12
314.12
314.12
441.623
441.623
428.559
314.698
428.559
441.623
311.131
428.559
428.559
428.559
314.698
428.559
314.698
314.698
314.12
441.623
314.12
306.617
441.623
743.703
314.12
314.698
441.623
428.559
428.559
314.12
428.559
441.623
428.559
314.698
314.698
314.12
314.698
441.623
428.559
428.559
314.12
314.698
428.559
314.698
314.698
441.623
441.623
441.623
314.698
314.698
314.698
428.559
314.698
737.379
314.698
428.559
428.559
679.219
314.698
314.12
314.12
314.12
441.623
314.12
314.12
708.324
428.559
314.698
314.698
314.12
428.559
314.12
428.559
314.12
314.698
314.12
303.033
441.623
428.559
441.623
314.698
314.12
314.12
314.12
428.559
314.698
428.559
314.698
314.12
314.698
441.623
319.086
428.559
314.698
314.698
314.12
441.623
314.12
314.12
314.12
314.12
314.698
736.071
314.698
314.12
428.559
441.623
441.623
675.154
428.559
428.559
676.268
428.559
314.12
314.12
441.623
314.698
428.559
428.559
428.559
314.12
441.623
441.623
314.698
314.12
314.698
314.698
314.698
679.219
314.698
314.698
314.12
314.698
428.559
307.972
721.947
441.623
441.623
314.12
441.623
428.559
428.559
428.559
428.559
428.559
749.787
428.559
314.698
314.698
314.12
428.559
314.12
428.559
314.12
314.698
428.559
301.967
320.997
314.698
314.698
314.12
696.228
314.12
303.219
428.559
314.698
428.559
314.698
428.559
314.12
314.12
428.559
428.559
441.623
428.559
441.623
428.559
314.12
314.12
314.12
441.623
314.698
428.559
314.12
441.623
314.698
428.559
428.559
441.623
428.559
314.12
314.12
441.623
314.12
314.698
441.623
428.559
314.12
314.698
428.559
314.698
314.698
314.12
314.12
314.12
441.623
428.559
441.623
441.623
314.698
314.12
314.698
303.039
314.12
428.559
753.838
441.623
314.12
302.998
314.12
314.12
428.559
314.12
314.698
314.698
314.698
314.12
314.698
428.559
428.559
428.559
314.698
428.559
428.559
314.12
302.197
314.12
301.4
428.559
314.698
428.559
314.698
314.698
428.559
314.12
441.623
441.623
441.623
314.12
441.623
441.623
428.559
441.623
441.623
428.559
441.623
441.623
708.68
314.12
428.559
428.559
314.698
314.698
314.12
314.12
314.698
428.559
428.559
314.698
441.623
441.623
314.698
428.559
441.623
323.651
314.698
314.12
428.559
428.559
314.12
428.559
428.559
314.12
441.623
302.904
321.318
314.12
314.12
428.559
428.559
428.559
314.12
428.559
428.559
428.559
428.559
441.623
428.559
314.698
441.623
428.559
428.559
314.698
428.559
314.12
428.559
694.457
314.698
428.559
441.623
314.12
314.12
441.623
441.623
750.114
314.12
692.285
428.559
684.616
441.623
428.559
441.623
441.623
314.698
314.12
441.623
428.559
314.12
314.698
314.12
441.623
314.12
314.12
314.698
314.698
428.559
441.623
428.559
428.559
314.698
428.559
314.698
428.559
441.623
441.623
314.12
301.38
441.623
428.559
314.12
704.41
314.698
314.12
314.698
314.12
314.12
314.698
428.559
441.623
441.623
428.559
314.12
314.12
441.623
314.12
694.639
428.559
428.559
441.623
428.559
314.698
314.12
428.559
441.623
314.698
314.698
428.559
314.12
428.559
314.12
314.12
314.12
428.559
314.698
314.12
314.12
314.698
441.623
301.391
441.623
441.623
314.12
314.12
441.623
428.559
314.698
314.12
314.12
441.623
441.623
428.559
314.698
314.698
441.623
314.698
314.12
736.071
314.12
314.698
428.559
441.623
441.623
428.559
428.559
704.463
428.559
428.559
314.698
441.623
302.238
441.623
441.623
314.698
680.751
428.559
428.559
441.623
314.12
428.559
441.623
314.698
428.559
691.752
428.559
314.698
314.12
314.698
314.12
441.623
441.623
428.559
441.623
428.559
428.559
441.623
428.559
428.559
314.12
314.698
314.698
310.857
305.09
441.623
441.623
314.698
314.698
441.623
441.623
428.559
314.12
680.751
428.559
428.559
314.12
428.559
314.12
314.698
304.05
314.12
428.559
314.698
428.559
428.559
441.623
314.698
428.559
314.698
303.849
314.698
314.12
428.559
441.623
316.82
314.12
303.039
314.698
314.698
314.12
441.623
314.12
314.12
428.559
758.301
428.559
314.12
314.12
314.12
428.559
679.219
428.559
314.698
428.559
314.698
665.614
316.894
314.12
314.12
314.12
428.559
314.698
441.623
314.953
314.12
314.698
428.559
441.623
441.623
428.559
441.623
441.623
319.485
428.559
441.623
314.12
314.12
314.698
428.559
428.559
441.623
441.623
314.698
428.559
441.623
441.623
314.698
428.559
743.703
314.12
428.559
314.698
441.623
314.12
428.559
441.623
314.698
428.559
314.12
441.623
428.559
314.12
314.698
441.623
428.559
428.559
314.12
428.559
441.623
314.12
441.623
314.698
314.698
781.174
314.698
314.12
314.12
314.12
307.339
441.623
314.12
314.698
740.461
314.698
428.559
441.623
441.623
428.559
441.623
314.12
441.623
314.698
314.698
314.698
314.12
314.698
314.12
314.12
314.698
441.623
314.698
314.698
441.623
314.12
314.12
314.698
302.197
441.623
314.12
314.12
441.623
314.698
441.623
441.623
314.12
428.559
428.559
314.12
428.559
314.698
307.339
314.698
314.12
314.12
314.12
314.12
314.12
303.373
428.559
441.623
774.886
314.698
316.087
428.559
314.12
314.12
441.623
314.12
314.698
314.12
314.12
314.12
428.559
314.698
314.12
428.559
314.12
441.623
314.698
314.12
314.698
428.559
441.623
314.698
428.559
428.559
314.12
314.12
314.12
428.559
314.698
301.68
745.643
428.559
314.12
314.12
314.698
441.623
441.623
441.623
314.12
314.698
314.12
441.623
428.559
314.12
316.093
314.698
314.698
314.12
428.559
314.698
441.623
314.698
428.559
428.559
314.698
314.698
428.559
665.614
314.698
441.623
753.524
697.117
723.3
428.559
428.559
441.623
314.12
314.12
441.623
314.698
441.623
314.698
314.12
441.623
314.12
314.12
428.559
314.12
670.187
663.32
428.559
428.559
314.698
314.698
314.12
441.623
314.12
441.623
314.12
314.12
428.559
441.623
428.559
313.66
306.31
314.698
314.12
441.623
314.12
428.559
314.12
428.559
314.12
428.559
428.559
314.698
314.12
441.623
314.12
428.559
314.698
428.559
441.623
441.623
441.623
314.12
428.559
441.623
668.514
441.623
441.623
314.12
428.559
314.12
314.12
314.698
314.12
314.698
314.12
428.559
441.623
668.929
314.698
314.698
428.559
314.12
314.12
314.12
314.12
428.559
428.559
314.698
314.698
314.12
314.12
727.734
301.475
441.623
428.559
428.559
314.12
428.559
302.5
441.623
314.12
428.559
441.623
314.698
428.559
314.698
314.12
314.698
755.698
441.623
319.241
314.12
314.12
314.12
314.698
441.623
314.698
314.12
428.559
314.12
314.698
314.12
441.623
314.698
314.698
441.623
428.559
668.514
320.137
314.12
428.559
428.559
785.844
441.623
314.12
314.12
428.559
441.623
314.12
441.623
428.559
428.559
314.12
314.698
441.623
749.787
441.623
314.12
441.623
441.623
314.698
314.698
314.698
314.698
428.559
441.623
441.623
441.623
314.698
314.12
314.698
314.12
428.559
428.559
428.559
428.559
441.623
428.559
428.559
308.497
314.698
314.12
314.12
441.623
441.623
428.559
428.559
428.559
314.12
684.616
314.698
314.698
314.12
441.623
441.623
314.12
314.698
314.12
441.623
314.698
428.559
428.559
314.12
314.12
314.12
314.12
314.698
314.698
314.698
314.698
314.12
314.12
428.559
314.12
428.559
314.698
428.559
428.559
679.784
314.12
314.12
765.526
314.698
428.559
441.623
428.559
441.623
314.12
428.559
702.115
314.12
301.922
441.623
428.559
428.559
704.01
314.12
314.12
314.12
441.623
302.341
314.153
314.12
758.661
441.623
314.12
314.698
314.698
314.698
314.12
314.698
441.623
314.12
301.4
314.698
428.559
428.559
428.559
428.559
428.559
314.12
441.623
749.781
428.559
428.559
428.559
325.092
320.997
314.12
428.559
314.12
314.12
314.12
314.12
314.698
428.559
428.559
441.623
314.12
428.559
314.12
441.623
314.12
692.663
686.285
428.559
314.698
441.623
441.623
314.698
441.623
309.815
428.559
320.997
314.698
314.698
758.301
314.698
428.559
441.623
314.12
428.559
314.12
314.12
314.698
314.698
314.698
428.559
314.698
733.932
441.623
303.847
441.623
441.623
708.138
314.12
428.559
428.559
428.559
314.12
441.623
428.559
314.698
314.12
314.12
441.623
428.559
301.44
428.559
428.559
314.698
441.623
428.559
441.623
428.559
441.623
428.559
428.559
307.844
314.698
428.559
441.623
314.12
314.12
441.623
428.559
314.698
315.125
314.698
428.559
428.559
314.12
441.623
428.559
441.623
305.09
314.12
314.12
314.698
314.698
314.698
314.698
314.12
428.559
441.623
697.117
694.457
441.623
428.559
314.698
428.559
314.698
316.401
428.559
314.12
314.698
441.623
441.623
306.31
428.559
428.559
314.698
428.559
428.559
428.559
428.559
441.623
428.559
441.623
428.559
428.559
314.698
441.623
441.623
428.559
441.623
314.698
313.154
314.698
314.698
428.559
441.623
314.12
428.559
428.559
441.623
314.12
314.12
428.559
441.623
314.698
314.12
441.623
428.559
441.623
441.623
428.559
314.12
428.559
441.623
314.698
314.698
428.559
441.623
314.12
314.12
428.559
441.623
428.559
428.559
761.468
314.12
314.698
314.698
314.698
314.698
428.559
314.12
314.12
314.698
428.559
441.623
428.559
441.623
314.698
314.12
314.12
314.12
428.559
428.559
428.559
314.12
428.559
303.219
441.623
314.12
428.559
314.698
314.12
428.559
755.071
428.559
314.12
428.559
428.559
441.623
314.12
428.559
314.12
428.559
441.623
314.698
314.12
441.623
428.559
314.12
314.698
314.698
314.698
314.12
428.559
314.698
314.12
428.559
428.559
314.12
314.12
428.559
428.559
688.605
314.12
314.12
428.559
314.12
314.698
428.559
314.698
302.96
737.379
441.623
428.559
314.698
428.559
441.623
314.12
428.559
314.12
314.12
754.606
314.698
441.623
428.559
428.559
441.623
314.12
314.12
314.698
314.12
302.5
314.698
428.559
723.3
441.623
428.559
314.12
701.841