<?xml version="1.0"?>
<VTKFile type="ImageData" version="0.1" byte_order="LittleEndian">
  <ImageData Origin="0 0 0" Spacing="1e-05 1e-05 1e-05" WholeExtent="0 191 0 191 0 0">
    <Piece Extent="0 191 0 191 0 0">
      <CellData Scalars="T">
        <DataArray type="Float32" Name="T" format="ascii" NumberOfComponents="1">
396.475
15000
14998.3
14995.5
14990.9
14983.9
14973.5
14958.7
14938
14909.9
14872.3
14823.1
14759.8
14679.9
14580.5
14458.8
14312
14137.4
13932.5
13695.5
13424.7
13119.4
12779.2
12404.9
11997.9
11560.4
11095.5
10606.9
10099.2
9577.23
9046.36
8512.17
7980.27
7456.2
6945.22
6452.23
5981.59
5537.06
5121.75
4738.03
4387.54
4071.23
3789.34
3541.5
3326.76
3143.7
2990.51
2865.06
2765.02
2687.93
2631.27
2592.58
2569.47
2559.69
2561.22
2572.23
2591.15
2616.66
2647.69
2683.41
2723.2
2766.65
2813.49
2863.56
2916.79
2973.15
3032.63
3095.19
3160.77
3229.26
3300.5
3374.28
3450.4
3528.6
3608.67
3690.41
3773.65
3858.26
3944.12
4031.14
4119.19
4208.1
4297.62
4387.37
4476.86
4565.48
4652.48
4737.05
4818.34
4895.5
4967.77
5034.48
5095.13
5149.4
5197.12
5238.3
5273.07
5301.65
5324.29
5341.29
5352.89
5359.38
5360.98
5357.99
5350.7
5339.5
5324.88
5307.41
5287.77
5266.66
5244.84
5222.98
5201.64
5181.21
5161.82
5143.37
5125.45
5107.4
5088.33
5067.21
5042.9
5014.31
4980.42
4940.39
4893.65
4839.92
4779.29
4712.15
4639.24
4561.58
4480.44
4397.23
4313.46
4230.67
4150.32
4073.76
4002.16
3936.48
3877.44
3825.53
3780.98
3743.85
3713.99
3691.12
3674.86
3664.79
3660.45
3661.41
3667.27
3677.7
3692.4
3711.15
3733.75
3760
3789.7
3822.57
3858.3
3896.42
3936.39
3977.51
4018.97
4059.87
4099.22
4135.98
4169.17
4197.82
4221.13
4238.44
4249.29
4253.5
4251.12
4242.45
4228.04
4208.64
4185.16
4158.62
4130.04
4100.43
4070.66
4041.39
4012.92
3985.02
3956.65
3925.29
3885.95
3828.99
3736.1
3572.38
3270.62
2699.44
1595.33
311.197
525.401
15000
14998.3
14995.5
14990.9
14983.9
14973.6
14958.8
14938.1
14910
14872.5
14823.4
14760.2
14680.4
14581.2
14459.6
14312.9
14138.5
13933.8
13697
13426.4
13121.2
12781.2
12407
12000.1
11562.6
11097.6
10609
10101.2
9579.01
9047.9
8513.41
7981.16
7456.7
6945.3
6451.85
5980.73
5535.72
5119.91
4735.69
4384.72
4067.94
3785.6
3537.33
3322.18
3138.75
2985.22
2859.47
2759.16
2681.84
2625.01
2586.17
2562.95
2553.11
2554.61
2565.63
2584.57
2610.13
2641.22
2677
2716.85
2760.35
2807.21
2857.28
2910.48
2966.79
3026.18
3088.63
3154.07
3222.4
3293.46
3367.08
3443.02
3521.06
3600.99
3682.61
3765.75
3850.29
3936.11
4023.12
4111.2
4200.18
4289.79
4379.67
4469.33
4558.15
4645.4
4730.26
4811.87
4889.39
4962.03
5029.15
5090.22
5144.91
5193.05
5234.63
5269.79
5298.71
5321.67
5338.94
5350.79
5357.47
5359.24
5356.38
5349.18
5338.06
5323.47
5306.01
5286.33
5265.18
5243.26
5221.28
5199.8
5179.19
5159.6
5140.93
5122.78
5104.5
5085.21
5063.87
5039.37
5010.61
4976.57
4936.43
4889.62
4835.87
4775.24
4708.13
4635.28
4557.71
4476.67
4393.58
4309.93
4227.26
4147.03
4070.58
3999.07
3933.47
3874.5
3822.64
3778.13
3741.03
3711.2
3688.35
3672.12
3662.08
3657.77
3658.78
3664.7
3675.2
3689.99
3708.83
3731.52
3757.86
3787.63
3820.56
3856.32
3894.45
3934.39
3975.45
4016.81
4057.57
4096.73
4133.28
4166.23
4194.63
4217.67
4234.72
4245.33
4249.32
4246.74
4237.92
4223.4
4203.93
4180.44
4153.91
4125.39
4095.87
4066.21
4037.05
4008.7
3980.93
3952.66
3921.42
3882.22
3825.51
3733.21
3571.15
3274.63
2721.65
1688.4
305.731
525.011
15000
14998.3
14995.5
14990.9
14984
14973.7
14958.9
14938.4
14910.3
14872.9
14824
14761
14681.4
14582.4
14461.1
14314.8
14140.7
13936.4
13699.9
13429.7
13124.8
12785.1
12411.2
12004.4
11567
11102.1
10613.3
10105.2
9582.72
9051.14
8516.08
7983.16
7457.93
6945.69
6451.34
5979.27
5533.29
5116.5
4731.3
4379.36
4061.63
3778.38
3529.23
3313.28
3129.09
2974.87
2848.49
2747.64
2669.86
2612.64
2573.5
2550.06
2540.08
2541.51
2552.52
2571.51
2597.15
2628.34
2664.24
2704.2
2747.78
2794.69
2844.76
2897.9
2954.1
3013.31
3075.54
3140.7
3208.72
3279.46
3352.73
3428.33
3506.06
3585.7
3667.07
3750.01
3834.41
3920.15
4007.14
4095.27
4184.36
4274.15
4364.29
4454.28
4543.51
4631.24
4716.65
4798.89
4877.11
4950.51
5018.42
5080.32
5135.84
5184.81
5227.19
5263.09
5292.71
5316.3
5334.12
5346.45
5353.54
5355.65
5353.04
5346.05
5335.05
5320.54
5303.09
5283.37
5262.1
5240.02
5217.81
5196.02
5175.06
5155.09
5135.99
5117.39
5098.64
5078.9
5057.13
5032.24
5003.14
4968.82
4928.47
4881.53
4827.71
4767.08
4700.04
4627.32
4549.92
4469.09
4386.23
4302.82
4220.39
4140.39
4064.15
3992.84
3927.4
3868.57
3816.81
3772.39
3735.36
3705.57
3682.78
3666.6
3656.62
3652.4
3653.5
3659.54
3670.18
3685.13
3704.14
3727
3753.51
3783.43
3816.48
3852.31
3890.45
3930.33
3971.25
4012.4
4052.87
4091.67
4127.8
4160.26
4188.16
4210.68
4227.21
4237.33
4240.88
4237.93
4228.81
4214.07
4194.49
4170.96
4144.48
4116.08
4086.73
4057.28
4028.36
4000.25
3972.71
3944.67
3913.65
3874.69
3818.36
3726.81
3566.43
3273.71
2728.31
1699.68
305.538
524.014
15000
14998.3
14995.5
14991
14984
14973.8
14959.1
14938.7
14910.8
14873.6
14824.8
14762.1
14682.9
14584.2
14463.4
14317.5
14143.9
13940.2
13704.3
13434.6
13130.3
12791.1
12417.5
12011
11573.8
11108.9
10620
10111.6
9588.64
9056.41
8520.53
7986.64
7460.3
6946.84
6451.16
5977.71
5530.28
5112.02
4725.34
4371.94
4052.79
3768.16
3517.7
3300.5
3115.15
2959.87
2832.54
2730.84
2652.33
2594.5
2554.88
2531.08
2520.85
2522.15
2533.11
2552.14
2577.87
2609.2
2645.25
2685.35
2729.05
2776.01
2826.08
2879.14
2935.16
2994.13
3056.01
3120.78
3188.34
3258.59
3331.35
3406.45
3483.71
3562.92
3643.91
3726.56
3810.73
3896.34
3983.3
4071.48
4160.72
4250.78
4341.28
4431.74
4521.55
4609.97
4696.2
4779.36
4858.59
4933.09
5002.17
5065.28
5122.03
5172.2
5215.76
5252.78
5283.43
5307.95
5326.61
5339.65
5347.35
5349.96
5347.76
5341.07
5330.29
5315.9
5298.48
5278.7
5257.28
5234.95
5212.39
5190.17
5168.7
5148.14
5128.4
5109.13
5089.7
5069.28
5046.88
5021.41
4991.8
4957.06
4916.4
4869.25
4815.33
4754.71
4687.78
4615.25
4538.11
4457.59
4375.07
4292.03
4209.96
4130.31
4054.4
3983.37
3918.19
3859.56
3807.97
3763.68
3726.75
3697.06
3674.34
3658.25
3648.36
3644.26
3645.51
3651.73
3662.57
3677.75
3697.01
3720.12
3746.86
3776.99
3810.2
3846.11
3884.26
3924.04
3964.75
4005.58
4045.61
4083.86
4119.35
4151.11
4178.25
4200
4215.77
4225.18
4228.09
4224.59
4215.04
4200
4180.25
4156.67
4130.28
4102.06
4072.98
4043.85
4015.28
3987.54
3960.35
3932.63
3901.91
3863.27
3807.35
3716.48
3557.31
3266.59
2723.64
1698.14
305.401
522.761
15000
14998.4
14995.6
14991.1
14984.2
14974
14959.4
14939.1
14911.4
14874.4
14825.9
14763.6
14684.8
14586.6
14466.4
14321.2
14148.3
13945.3
13710.1
13441.2
13137.6
12799
12426.1
12020.1
11583.1
11118.3
10629.4
10120.6
9597.1
9064.09
8527.21
7992.1
7464.36
6949.33
6451.95
5976.68
5527.36
5107.16
4718.53
4363.18
4042.11
3755.62
3503.38
3284.49
3097.57
2940.83
2812.18
2709.3
2629.77
2571.08
2530.75
2506.41
2495.8
2496.85
2507.7
2526.73
2552.54
2584
2620.21
2660.47
2704.28
2751.31
2801.36
2854.31
2910.11
2968.74
3030.2
3094.45
3161.42
3231.03
3303.13
3377.58
3454.2
3532.84
3613.34
3695.58
3779.45
3864.87
3951.75
4039.98
4129.4
4219.76
4310.7
4401.75
4492.3
4581.61
4668.86
4753.19
4833.73
4909.64
4980.23
5044.89
5103.23
5154.98
5200.07
5238.54
5270.55
5296.3
5316.05
5330.06
5338.58
5341.87
5340.22
5333.96
5323.48
5309.28
5291.92
5272.07
5250.46
5227.81
5204.81
5182.04
5159.9
5138.57
5118
5097.85
5077.52
5056.22
5032.97
5006.73
4976.45
4941.17
4900.1
4852.67
4798.63
4738.02
4671.22
4598.94
4522.15
4442.04
4359.98
4277.42
4195.84
4116.66
4041.19
3970.56
3905.71
3847.37
3796.02
3751.92
3715.14
3685.58
3662.97
3647
3637.24
3633.29
3634.74
3641.18
3652.29
3667.76
3687.33
3710.75
3737.79
3768.16
3801.56
3837.56
3875.69
3915.32
3955.74
3996.12
4035.55
4073.08
4107.73
4138.56
4164.71
4185.45
4200.24
4208.72
4210.8
4206.6
4196.5
4181.09
4161.13
4137.53
4111.26
4083.3
4054.58
4025.89
3997.8
3970.54
3943.81
3916.51
3886.16
3847.89
3792.37
3702.08
3543.8
3254.41
2713.04
1685.69
305.301
522.432
15000
14998.4
14995.6
14991.1
14984.3
14974.2
14959.8
14939.6
14912.1
14875.4
14827.3
14765.4
14687.1
14589.6
14470
14325.6
14153.5
13951.5
13717.3
13449.3
13146.7
12809
12436.9
12031.5
11595
11130.5
10641.5
10132.5
9608.41
9074.57
8536.56
8000.07
7470.69
6953.8
6454.38
5976.92
5525.29
5102.71
4711.66
4353.89
4030.42
3741.59
3487.1
3266.06
3077.11
2918.49
2788.12
2683.71
2602.82
2542.97
2501.69
2476.59
2465.41
2466.07
2476.7
2495.63
2521.47
2553.03
2589.37
2629.77
2673.7
2720.78
2770.78
2823.58
2879.11
2937.35
2998.29
3061.91
3128.17
3197.01
3268.31
3341.96
3417.81
3495.74
3575.61
3657.33
3740.79
3825.95
3912.7
4000.95
4090.55
4181.24
4272.69
4364.41
4455.8
4546.14
4634.6
4720.32
4802.4
4880
4952.38
5018.92
5079.17
5132.83
5179.78
5220.02
5253.69
5280.96
5302.08
5317.28
5326.84
5331
5330.06
5324.36
5314.28
5300.33
5283.08
5263.19
5241.37
5218.35
5194.83
5171.38
5148.43
5126.18
5104.59
5083.35
5061.92
5039.53
5015.25
4988.07
4956.97
4921.02
4879.43
4831.67
4777.46
4716.87
4650.25
4578.27
4501.9
4422.31
4340.83
4258.88
4177.91
4099.32
4024.4
3954.27
3889.87
3831.9
3780.86
3737.01
3700.44
3671.04
3648.6
3632.78
3623.19
3619.44
3621.12
3627.84
3639.26
3655.07
3675
3698.78
3726.15
3756.8
3790.38
3826.47
3864.53
3903.94
3943.97
3983.77
4022.46
4059.08
4092.68
4122.36
4147.3
4166.82
4180.41
4187.79
4188.87
4183.85
4173.11
4157.27
4137.1
4113.48
4087.39
4059.77
4031.52
4003.39
3975.9
3949.23
3923.06
3896.26
3866.36
3828.48
3773.37
3683.59
3526.1
3238.06
2700.05
1688.88
305.261
522.452
15000
14998.4
14995.6
14991.2
14984.5
14974.5
14960.1
14940.2
14912.9
14876.5
14828.8
14767.4
14689.7
14592.9
14474.2
14330.7
14159.7
13958.7
13725.7
13458.9
13157.4
12820.9
12449.7
12045.2
11609.4
11145.3
10656.5
10147.3
9622.78
9088.12
8548.95
8010.98
7479.81
6960.84
6459.11
5979.14
5524.84
5099.48
4705.58
4344.93
4018.6
3726.96
3469.73
3246.07
3054.64
2893.7
2761.2
2654.85
2572.25
2510.91
2468.37
2442.25
2430.27
2430.34
2440.58
2459.29
2485.05
2516.63
2553.05
2593.55
2637.56
2684.66
2734.59
2787.2
2842.4
2900.18
2960.53
3023.43
3088.88
3156.82
3227.19
3299.9
3374.85
3451.93
3531.05
3612.12
3695.08
3779.87
3866.43
3954.65
4044.39
4135.41
4227.38
4319.82
4412.14
4503.61
4593.42
4680.68
4764.5
4844.02
4918.44
4987.12
5049.56
5105.41
5154.52
5196.83
5232.44
5261.51
5284.25
5300.89
5311.7
5316.93
5316.88
5311.87
5302.33
5288.73
5271.64
5251.73
5229.7
5206.29
5182.18
5157.96
5134.07
5110.75
5087.97
5065.47
5042.75
5019.09
4993.6
4965.31
4933.24
4896.49
4854.3
4806.15
4751.76
4691.17
4624.76
4553.16
4477.29
4398.31
4317.51
4236.29
4156.06
4078.19
4003.94
3934.43
3870.56
3813.06
3762.41
3718.89
3682.58
3653.42
3631.17
3615.55
3606.18
3602.67
3604.62
3611.65
3623.43
3639.62
3659.94
3684.11
3711.82
3742.75
3776.51
3812.63
3850.58
3889.68
3929.2
3968.3
4006.07
4041.6
4073.97
4102.3
4125.82
4143.92
4156.14
4162.23
4162.2
4156.24
4144.8
4128.5
4108.11
4084.53
4058.68
4031.5
4003.82
3976.36
3949.58
3923.61
3898.11
3871.89
3842.48
3805.02
3750.32
3661.06
3504.45
3218.41
2685.84
1691
305.228
522.677
15000
14998.4
14995.7
14991.3
14984.6
14974.7
14960.6
14940.8
14913.8
14877.7
14830.5
14769.6
14692.6
14596.5
14478.7
14336.2
14166.4
13966.7
13735
13469.6
13169.6
12834.4
12464.5
12061.1
11626.2
11162.7
10674.3
10165.1
9640.24
9104.86
8564.58
8025.11
7492.08
6970.92
6466.68
5983.95
5526.69
5098.2
4701.07
4337.13
4007.5
3712.59
3452.17
3225.42
3031.05
2867.35
2732.28
2623.58
2538.87
2475.68
2431.55
2404.09
2391.04
2390.29
2399.93
2418.24
2443.77
2475.24
2511.65
2552.17
2596.19
2643.26
2693.07
2745.44
2800.28
2857.54
2917.22
2979.33
3043.87
3110.82
3180.14
3251.79
3325.7
3401.8
3480.04
3560.34
3642.68
3727.01
3813.27
3901.38
3991.21
4082.52
4174.99
4268.15
4361.43
4454.09
4545.34
4634.26
4719.97
4801.55
4878.21
4949.25
5014.12
5072.42
5123.93
5168.58
5206.4
5237.53
5262.14
5280.46
5292.75
5299.25
5300.27
5296.13
5287.25
5274.11
5257.27
5237.39
5215.18
5191.36
5166.62
5141.55
5116.63
5092.1
5067.98
5044.07
5019.89
4994.79
4967.92
4938.37
4905.2
4867.55
4824.68
4776.07
4721.47
4660.91
4594.73
4523.55
4448.27
4370
4290
4209.62
4130.25
4053.21
3979.76
3910.97
3847.76
3790.82
3740.65
3697.53
3661.56
3632.68
3610.7
3595.32
3586.21
3582.97
3585.23
3592.62
3604.77
3621.37
3642.11
3666.66
3694.71
3725.9
3759.8
3795.91
3833.65
3872.35
3911.24
3949.48
3986.18
4020.45
4051.39
4078.18
4100.11
4116.61
4127.29
4131.98
4130.71
4123.75
4111.56
4094.78
4074.2
4050.7
4025.18
3998.52
3971.53
3944.84
3918.89
3893.73
3868.96
3843.39
3814.52
3777.5
3723.22
3634.51
3478.97
3195.38
2668.65
1680.9
305.12
521.394
15000
14998.4
14995.7
14991.4
14984.8
14975
14961
14941.4
14914.7
14879
14832.2
14771.9
14695.5
14600.3
14483.5
14342.1
14173.5
13975.2
13745
13481.2
13182.7
12849
12480.6
12078.6
11644.9
11182.3
10694.5
10185.6
9660.6
9124.67
8583.41
8042.52
7507.65
6984.26
6477.44
5991.79
5531.36
5099.48
4698.81
4331.23
3997.91
3699.32
3435.27
3205
3007.24
2840.32
2702.25
2590.78
2503.55
2438.11
2392.02
2362.89
2348.46
2346.6
2355.38
2373.08
2398.18
2429.39
2465.64
2506.07
2550.01
2596.96
2646.59
2698.67
2753.09
2809.78
2868.74
2929.99
2993.54
3059.4
3127.58
3198.06
3270.81
3345.82
3423.03
3502.44
3584.03
3667.77
3753.62
3841.53
3931.35
4022.88
4115.79
4209.64
4303.86
4397.73
4490.43
4581.08
4668.75
4752.53
4831.56
4905.12
4972.6
5033.56
5087.71
5134.92
5175.2
5208.62
5235.35
5255.6
5269.59
5277.58
5279.86
5276.78
5268.72
5256.16
5239.68
5219.91
5197.56
5173.33
5147.94
5121.99
5095.94
5070.11
5044.54
5019.07
4993.29
4966.59
4938.21
4907.27
4872.89
4834.23
4790.6
4741.49
4686.66
4626.12
4560.2
4489.51
4414.89
4337.42
4258.31
4178.89
4100.49
4024.42
3951.88
3883.94
3821.48
3765.21
3715.61
3672.98
3637.42
3608.89
3587.23
3572.15
3563.34
3560.42
3563.02
3570.78
3583.33
3600.35
3621.49
3646.43
3674.8
3706.2
3740.17
3776.19
3813.64
3851.81
3889.94
3927.17
3962.64
3995.47
4024.81
4049.89
4070.06
4084.81
4093.83
4097
4094.42
4086.41
4073.45
4056.21
4035.48
4012.12
3987
3960.96
3934.76
3908.96
3883.92
3859.65
3835.7
3810.82
3782.5
3745.94
3692.09
3603.98
3449.57
3168.2
2644.13
1652.3
305.017
520.03
15000
14998.4
14995.8
14991.5
14984.9
14975.3
14961.4
14942
14915.6
14880.2
14833.8
14774.1
14698.4
14604
14488.2
14348
14180.7
13983.8
13755.1
13493
13196.2
12864.4
12497.6
12097.2
11664.9
11203.6
10716.6
10208.3
9683.4
9147.16
8605.13
8063
7526.42
7000.87
6491.46
6002.86
5539.14
5103.71
4699.27
4327.78
3990.46
3687.84
3419.78
3185.59
2984.03
2813.48
2671.97
2557.32
2467.16
2399.08
2350.64
2319.47
2303.31
2300.02
2307.66
2324.47
2348.91
2379.64
2415.56
2455.75
2499.48
2546.23
2595.59
2647.31
2701.25
2757.31
2815.5
2875.83
2938.32
3003.03
3069.98
3139.19
3210.68
3284.46
3360.54
3438.92
3519.61
3602.63
3687.95
3775.51
3865.21
3956.85
4050.11
4144.58
4239.67
4334.7
4428.85
4521.23
4610.89
4696.92
4778.41
4854.61
4924.84
4988.61
5045.58
5095.57
5138.52
5174.47
5203.56
5225.95
5241.88
5251.59
5255.35
5253.51
5246.44
5234.63
5218.63
5199.07
5176.64
5152.05
5126.02
5099.15
5071.94
5044.72
5017.61
4990.47
4962.97
4934.57
4904.55
4872.1
4836.4
4796.66
4752.21
4702.56
4647.48
4586.97
4521.35
4451.18
4377.29
4300.7
4222.59
4144.23
4066.92
3991.92
3920.41
3853.42
3791.83
3736.33
3687.39
3645.33
3610.27
3582.17
3560.88
3546.15
3537.68
3535.12
3538.09
3546.24
3559.2
3576.63
3598.17
3623.45
3652.09
3683.65
3717.63
3753.46
3790.49
3828.01
3865.23
3901.31
3935.39
3966.62
3994.2
4017.42
4035.68
4048.57
4055.82
4057.39
4053.45
4044.35
4030.63
4012.96
3992.13
3968.97
3944.34
3919.01
3893.68
3868.85
3844.81
3821.5
3798.41
3774.25
3746.5
3710.39
3656.96
3569.46
3416.23
3137.26
2618.39
1643.57
304.973
517.254
15000
14998.5
14995.8
14991.6
14985.1
14975.5
14961.7
14942.5
14916.3
14881.3
14835.3
14776.1
14701.1
14607.5
14492.6
14353.5
14187.5
13992.1
13765.1
13504.7
13209.7
12879.7
12514.8
12116.2
11685.6
11225.7
10739.9
10232.4
9707.96
9171.71
8629.2
8086.08
7548.01
7020.46
6508.59
6017.1
5550.09
5111.05
4702.72
4327.14
3985.6
3678.68
3406.33
3167.87
2962.15
2787.59
2642.27
2524.02
2430.53
2359.41
2308.24
2274.65
2256.4
2251.33
2257.5
2273.13
2296.64
2326.65
2362.02
2401.78
2445.16
2491.57
2540.56
2591.84
2645.22
2700.61
2757.97
2817.33
2878.72
2942.21
3007.85
3075.71
3145.84
3218.29
3293.1
3370.31
3449.98
3532.12
3616.75
3703.83
3793.26
3884.87
3978.36
4073.31
4169.18
4265.28
4360.8
4454.86
4546.5
4634.78
4718.77
4797.65
4870.73
4937.44
4997.38
5050.32
5096.13
5134.82
5166.49
5191.27
5209.37
5221.02
5226.49
5226.09
5220.22
5209.33
5193.95
5174.72
5152.31
5127.43
5100.78
5073.01
5044.62
5015.98
4987.26
4958.38
4929.08
4898.87
4867.11
4833.08
4795.98
4755.09
4709.76
4659.54
4604.19
4543.72
4478.42
4408.82
4335.71
4260.08
4183.06
4105.86
4029.74
3955.92
3885.54
3819.61
3759
3704.36
3656.18
3614.78
3580.29
3552.68
3531.84
3517.52
3509.43
3507.25
3510.62
3519.17
3532.54
3550.36
3572.26
3597.85
3626.7
3658.33
3692.21
3727.74
3764.25
3800.98
3837.14
3871.91
3904.44
3933.93
3959.61
3980.83
3997.08
4008
4013.41
4013.34
4008.01
3997.83
3983.36
3965.29
3944.41
3921.54
3897.46
3872.92
3848.54
3824.75
3801.75
3779.44
3757.22
3733.79
3706.6
3670.91
3617.9
3531.02
3379.05
3102.7
2588.55
1614.85
304.927
515.809
15000
14998.5
14995.8
14991.6
14985.2
14975.7
14962
14943
14917
14882.2
14836.6
14777.9
14703.4
14610.6
14496.6
14358.5
14193.8
13999.7
13774.3
13515.6
13222.5
12894.4
12531.5
12134.8
11706
11247.8
10763.5
10257.1
9733.41
9197.5
8654.83
8111.05
7571.78
7042.51
6528.41
6034.19
5564.01
5121.41
4709.21
4329.48
3983.6
3672.22
3395.35
3152.38
2942.21
2763.32
2613.84
2491.65
2394.47
2319.92
2265.64
2229.26
2208.54
2201.35
2205.7
2219.82
2242.09
2271.12
2305.69
2344.81
2387.64
2433.55
2482.05
2532.79
2585.54
2640.18
2696.67
2755.01
2815.25
2877.47
2941.75
3008.19
3076.86
3147.88
3221.3
3297.22
3375.71
3456.83
3540.61
3627.03
3716.03
3807.44
3900.98
3996.27
4092.77
4189.81
4286.6
4382.24
4475.78
4566.26
4652.72
4734.31
4810.28
4880
4943.03
4999.05
5047.9
5089.53
5123.99
5151.38
5171.89
5185.72
5193.12
5194.4
5189.92
5180.14
5165.56
5146.8
5124.53
5099.45
5072.26
5043.62
5014.07
4984.01
4953.65
4922.99
4891.82
4859.75
4826.2
4790.5
4751.95
4709.85
4663.61
4612.79
4557.17
4496.74
4431.78
4362.79
4290.52
4215.91
4140.04
4064.09
3989.25
3916.71
3847.56
3782.79
3723.24
3669.56
3622.24
3581.58
3547.73
3520.69
3500.35
3486.48
3478.83
3477.06
3480.83
3489.79
3503.55
3521.74
3543.96
3569.79
3598.77
3630.39
3664.07
3699.18
3735.01
3770.81
3805.78
3839.1
3869.94
3897.54
3921.19
3940.31
3954.45
3963.33
3966.86
3965.12
3958.4
3947.15
3931.97
3913.56
3892.69
3870.16
3846.71
3823.02
3799.63
3776.91
3754.99
3733.67
3712.32
3689.58
3662.91
3627.61
3574.97
3488.72
3338.08
3064.53
2556.29
1603.79
304.977
514.868
15000
14998.5
14995.9
14991.7
14985.3
14975.8
14962.2
14943.3
14917.5
14882.9
14837.6
14779.3
14705.3
14613.1
14499.8
14362.7
14199
14006.3
13782.3
13525.2
13233.9
12907.7
12546.8
12152.1
11725.3
11269
10786.3
10281.4
9758.8
9223.57
8681.12
8137.04
7596.95
7066.31
6550.28
6053.61
5580.51
5134.53
4718.56
4334.75
3984.53
3668.63
3387.13
3139.49
2924.68
2741.22
2587.31
2460.87
2359.67
2281.37
2223.62
2184.1
2160.55
2150.86
2153.05
2165.31
2186.03
2213.76
2247.27
2285.49
2327.57
2372.8
2420.65
2470.73
2522.75
2576.58
2632.13
2689.41
2748.46
2809.37
2872.24
2937.19
3004.34
3073.83
3145.76
3220.26
3297.43
3377.36
3460.11
3545.71
3634.08
3725.1
3818.52
3913.96
4010.9
4108.71
4206.6
4303.68
4399.01
4491.59
4580.47
4664.74
4743.6
4816.38
4882.56
4941.78
4993.81
5038.55
5076
5106.22
5129.37
5145.61
5155.18
5158.37
5155.51
5147.04
5133.45
5115.34
5093.35
5068.19
5040.57
5011.13
4980.47
4949.01
4917.02
4884.57
4851.53
4817.56
4782.17
4744.78
4704.73
4661.4
4614.22
4562.78
4506.87
4446.49
4381.89
4313.54
4242.15
4168.62
4093.97
4019.33
3945.84
3874.65
3806.82
3743.3
3684.9
3632.27
3585.88
3546.04
3512.91
3486.5
3466.71
3453.34
3446.15
3444.82
3449.01
3458.36
3472.49
3491.01
3513.5
3539.5
3568.52
3600.02
3633.38
3667.94
3702.97
3737.7
3771.33
3803.05
3832.07
3857.67
3879.19
3896.13
3908.1
3914.9
3916.52
3913.11
3905.02
3892.74
3876.89
3858.19
3837.39
3815.25
3792.47
3769.66
3747.3
3725.66
3704.79
3684.44
3663.91
3641.8
3615.58
3580.6
3528.3
3442.68
3293.58
3023.86
2526.22
1604.96
305.138
514.116
15000
14998.5
14995.9
14991.7
14985.3
14975.9
14962.4
14943.5
14917.8
14883.4
14838.3
14780.2
14706.6
14614.8
14502.2
14365.8
14203.1
14011.4
13788.7
13533.1
13243.5
12919.1
12560.2
12167.5
11742.8
11288.4
10807.6
10304.4
9783.15
9248.93
8707.08
8163.12
7622.62
7091.01
6573.46
6074.71
5599
5149.93
4730.42
4342.71
3988.27
3667.92
3381.79
3129.43
2909.87
2721.7
2563.17
2432.26
2326.78
2244.43
2182.91
2139.9
2113.18
2100.65
2100.32
2110.39
2129.21
2155.33
2187.48
2224.55
2265.63
2309.98
2357.01
2406.27
2457.46
2510.39
2564.94
2621.11
2678.92
2738.48
2799.9
2863.32
2928.88
2996.75
3067.09
3140.05
3215.76
3294.35
3375.91
3460.48
3548.03
3638.46
3731.53
3826.91
3924.1
4022.47
4121.27
4219.62
4316.57
4411.13
4502.31
4589.18
4670.9
4746.74
4816.12
4878.62
4933.95
4981.95
5022.56
5055.82
5081.83
5100.72
5112.7
5118.03
5117.03
5110.09
5097.7
5080.42
5058.9
5033.81
5005.87
4975.75
4944.06
4911.27
4877.7
4843.49
4808.58
4772.72
4735.49
4696.39
4654.83
4610.24
4562.1
4510.04
4453.85
4393.52
4329.28
4261.59
4191.11
4118.69
4045.31
3972.03
3899.96
3830.19
3763.75
3701.54
3644.36
3592.84
3547.45
3508.5
3476.15
3450.42
3431.24
3418.42
3411.71
3410.83
3415.44
3425.17
3439.65
3458.45
3481.13
3507.23
3536.19
3567.46
3600.38
3634.26
3668.35
3701.87
3734.03
3764.03
3791.12
3814.61
3833.93
3848.62
3858.38
3863.09
3862.8
3857.75
3848.32
3835.06
3818.6
3799.66
3778.98
3757.27
3735.19
3713.27
3691.91
3671.32
3651.46
3632.01
3612.21
3590.64
3564.77
3530.03
3478.01
3393.06
3245.72
2980.41
2492.54
1584.94
305.232
512.953
15000
14998.5
14995.9
14991.7
14985.3
14975.9
14962.4
14943.6
14917.9
14883.5
14838.5
14780.6
14707.2
14615.8
14503.6
14367.8
14205.7
14015
13793.4
13539.1
13250.9
12928.2
12571.1
12180.4
11757.7
11305.4
10826.6
10325.2
9805.58
9272.7
8731.81
8188.37
7647.88
7115.75
6597.12
6096.74
5618.83
5167.05
4744.35
4353.01
3994.59
3669.95
3379.31
3122.29
2897.98
2705.05
2541.79
2406.26
2296.31
2209.7
2144.13
2097.35
2067.16
2051.46
2048.28
2055.81
2072.41
2096.59
2127.06
2162.69
2202.51
2245.75
2291.76
2340.05
2390.28
2442.2
2495.68
2550.67
2607.22
2665.39
2725.32
2787.16
2851.08
2917.28
2985.93
3057.23
3131.35
3208.45
3288.64
3372
3458.53
3548.15
3640.66
3735.74
3832.94
3931.65
4031.14
4130.55
4228.93
4325.3
4418.64
4508
4592.5
4671.36
4743.96
4809.79
4868.5
4919.89
4963.84
5000.32
5029.39
5051.16
5065.79
5073.51
5074.6
5069.43
5058.46
5042.23
5021.35
4996.52
4968.43
4937.76
4905.16
4871.14
4836.07
4800.17
4763.43
4725.71
4686.66
4645.86
4602.79
4556.94
4507.84
4455.15
4398.67
4338.39
4274.53
4207.51
4137.96
4066.67
3994.58
3922.7
3852.09
3783.78
3718.77
3657.93
3602.03
3551.68
3507.35
3469.34
3437.81
3412.82
3394.28
3382.03
3375.83
3375.41
3380.43
3390.52
3405.3
3424.32
3447.14
3473.23
3502.04
3532.96
3565.31
3598.38
3631.41
3663.6
3694.16
3722.33
3747.39
3768.71
3785.76
3798.16
3805.7
3808.33
3806.16
3799.51
3788.8
3774.61
3757.6
3738.48
3717.96
3696.71
3675.32
3654.27
3633.88
3614.26
3595.32
3576.65
3557.46
3536.31
3510.67
3476.06
3424.26
3340
3194.61
2934.2
2458.05
1580.23
305.364
512.929
15000
14998.5
14995.9
14991.7
14985.3
14975.9
14962.3
14943.5
14917.8
14883.4
14838.4
14780.6
14707.3
14616
14504
14368.6
14207
14016.9
13796.1
13542.9
13256
12934.7
12579.3
12190.4
11769.6
11319.3
10842.6
10343.2
9825.41
9294.13
8754.52
8211.98
7671.93
7139.75
6620.51
6118.97
5639.34
5185.29
4759.81
4365.23
4003.15
3674.5
3379.57
3118.05
2889.1
2691.44
2523.46
2383.24
2268.71
2177.66
2107.86
2057.08
2023.14
2003.98
1997.63
2002.31
2016.35
2038.27
2066.75
2100.63
2138.92
2180.79
2225.57
2272.71
2321.82
2372.61
2424.93
2478.69
2533.91
2590.66
2649.06
2709.29
2771.53
2835.99
2902.89
2972.44
3044.86
3120.32
3198.98
3280.94
3366.25
3454.84
3546.55
3641.1
3738.07
3836.87
3936.81
4037.04
4136.63
4234.6
4329.94
4421.65
4508.83
4590.65
4666.42
4735.6
4797.77
4852.65
4900.06
4939.94
4972.28
4997.14
5014.64
5024.98
5028.4
5025.24
5015.93
5000.97
4980.96
4956.58
4928.51
4897.48
4864.12
4829
4792.55
4755.04
4716.56
4677.03
4636.21
4593.74
4549.19
4502.09
4452.04
4398.71
4341.93
4281.7
4218.21
4151.86
4083.24
4013.09
3942.31
3871.84
3802.71
3735.89
3672.34
3612.91
3558.32
3509.18
3465.94
3428.91
3398.26
3374.02
3356.15
3344.49
3338.82
3338.85
3344.26
3354.69
3369.71
3388.9
3411.77
3437.77
3466.32
3496.77
3528.44
3560.57
3592.4
3623.14
3652
3678.25
3701.21
3720.29
3735.05
3745.17
3750.5
3751.07
3747.08
3738.88
3726.96
3711.91
3694.41
3675.15
3654.81
3634.02
3613.31
3593.08
3573.57
3554.83
3536.67
3518.65
3499.92
3479.02
3453.48
3418.88
3367.23
3283.68
3140.38
2884.96
2418.67
1553.3
305.368
513.805
15000
14998.5
14995.9
14991.7
14985.2
14975.8
14962.2
14943.3
14917.5
14883.1
14838
14780.1
14706.8
14615.5
14503.6
14368.3
14207
14017.3
13797.1
13544.6
13258.7
12938.7
12584.7
12197.4
11778.5
11330.1
10855.4
10358
9842.22
9312.73
8774.68
8233.36
7694.15
7162.33
6642.97
6140.75
5659.9
5204.07
4776.29
4378.9
4013.57
3681.28
3382.38
3116.6
2883.2
2680.96
2508.32
2363.45
2244.3
2148.74
2074.57
2019.6
1981.7
1958.83
1949.04
1950.56
1961.73
1981.07
2007.24
2039.07
2075.54
2115.79
2159.09
2204.87
2252.69
2302.23
2353.27
2405.72
2459.56
2514.85
2571.7
2630.29
2690.81
2753.49
2818.57
2886.29
2956.89
3030.59
3107.57
3187.97
3271.85
3359.2
3449.89
3543.67
3640.15
3738.79
3838.91
3939.72
4040.29
4139.64
4236.77
4330.66
4420.37
4505.05
4583.96
4656.47
4722.12
4780.56
4831.56
4874.97
4910.75
4938.9
4959.5
4972.69
4978.69
4977.78
4970.35
4956.9
4937.99
4914.27
4886.45
4855.23
4821.29
4785.23
4747.54
4708.56
4668.44
4627.2
4584.67
4540.58
4494.57
4446.25
4395.25
4341.3
4284.22
4224.03
4160.9
4095.21
4027.5
3958.49
3889
3819.95
3752.29
3686.98
3624.9
3566.88
3513.62
3465.72
3423.6
3387.57
3357.8
3334.35
3317.17
3306.1
3300.95
3301.42
3307.2
3317.91
3333.14
3352.43
3375.25
3401.07
3429.25
3459.13
3489.99
3521.07
3551.59
3580.77
3607.84
3632.1
3652.9
3669.72
3682.17
3690.01
3693.18
3691.75
3686
3676.33
3663.27
3647.44
3629.5
3610.14
3590
3569.66
3549.59
3530.1
3511.36
3493.36
3475.83
3458.28
3439.83
3419.02
3393.41
3358.71
3307.13
3224.28
3083.13
2832.74
2376.72
1531.64
305.349
515.251
15000
14998.5
14995.8
14991.6
14985.1
14975.6
14962
14943
14917.1
14882.6
14837.4
14779.3
14705.8
14614.4
14502.4
14367.1
14205.9
14016.4
13796.5
13544.6
13259.4
12940.4
12587.5
12201.7
11784.4
11337.9
10865.1
10369.7
9855.88
9328.31
8792
8252.17
7714.12
7183.07
6664
6161.58
5680
5222.9
4793.32
4393.62
4025.5
3689.99
3387.48
3117.79
2880.22
2673.61
2496.48
2347.04
2223.33
2123.24
2044.64
1985.37
1943.34
1916.55
1903.09
1901.18
1909.2
1925.65
1949.21
1978.69
2013.04
2051.39
2092.97
2137.17
2183.51
2231.63
2281.28
2332.32
2384.72
2438.49
2493.76
2550.68
2609.45
2670.32
2733.54
2799.37
2868.08
2939.9
3015.07
3093.74
3176.02
3261.93
3351.37
3444.14
3539.88
3638.1
3738.15
3839.27
3940.56
4041.06
4139.75
4235.63
4327.72
4415.13
4497.08
4572.88
4642.02
4704.06
4758.72
4805.79
4845.15
4876.77
4900.67
4916.93
4925.72
4927.3
4922.01
4910.3
4892.73
4869.92
4842.56
4811.37
4777.05
4740.23
4701.47
4661.15
4619.53
4576.67
4532.53
4486.89
4439.47
4389.96
4338.03
4283.45
4226.07
4165.91
4103.12
4038.06
3971.25
3903.34
3835.13
3767.47
3701.27
3637.44
3576.83
3520.22
3468.29
3421.62
3380.62
3345.6
3316.74
3294.07
3277.57
3267.1
3262.45
3263.34
3269.46
3280.41
3295.78
3315.08
3337.79
3363.32
3391.02
3420.21
3450.15
3480.07
3509.18
3536.71
3561.92
3584.13
3602.74
3617.29
3627.46
3633.07
3634.12
3630.77
3623.35
3612.3
3598.18
3581.64
3563.32
3543.89
3523.95
3504.03
3484.52
3465.67
3447.58
3430.14
3413.07
3395.8
3377.43
3356.53
3330.7
3295.76
3244.2
3162.04
3023.08
2777.78
2332.26
1508.74
305.274
516.075
15000
14998.5
14995.8
14991.5
14985
14975.5
14961.8
14942.6
14916.6
14881.9
14836.6
14778.3
14704.6
14613
14500.8
14365.3
14204
14014.5
13794.8
13543.2
13258.5
12940.2
12588.3
12203.7
11787.8
11342.9
10871.9
10378.4
9866.58
9340.96
8806.5
8268.35
7731.72
7201.74
6683.35
6181.15
5699.3
5241.42
4810.54
4409.02
4038.59
3700.32
3394.64
3121.42
2880.01
2669.34
2487.94
2334.12
2205.95
2101.39
2018.35
1954.73
1908.48
1877.62
1860.28
1854.72
1859.32
1872.62
1893.27
1920.1
1952.05
1988.21
2027.81
2070.2
2114.86
2161.39
2209.5
2259.04
2309.9
2362.11
2415.76
2470.98
2527.99
2587.02
2648.34
2712.24
2778.98
2848.85
2922.09
2998.9
3079.42
3163.7
3251.68
3343.21
3437.98
3535.52
3635.24
3736.4
3838.15
3939.54
4039.57
4137.21
4231.5
4321.49
4406.36
4485.38
4557.96
4623.61
4681.98
4732.79
4775.87
4811.11
4838.47
4858
4869.8
4874.09
4871.17
4861.46
4845.46
4823.79
4797.13
4766.19
4731.71
4694.35
4654.69
4613.21
4570.22
4525.88
4480.22
4433.11
4384.35
4333.68
4280.85
4225.64
4167.95
4107.79
4045.32
3980.86
3914.91
3848.07
3781.09
3714.79
3650.02
3587.63
3528.46
3473.24
3422.63
3377.17
3337.29
3303.27
3275.29
3253.41
3237.58
3227.68
3223.51
3224.79
3231.19
3242.33
3257.77
3277.01
3299.51
3324.65
3351.78
3380.17
3409.09
3437.74
3465.35
3491.16
3514.45
3534.57
3550.98
3563.28
3571.2
3574.63
3573.65
3568.47
3559.47
3547.14
3532.06
3514.87
3496.22
3476.74
3457
3437.44
3418.4
3400.08
3382.47
3365.44
3348.62
3331.43
3312.95
3291.78
3265.57
3230.29
3178.67
3097.19
2960.42
2720
2282.86
1464.22
305.12
517.258
15000
14998.4
14995.8
14991.5
14985
14975.3
14961.5
14942.3
14916.2
14881.3
14835.7
14777.2
14703.3
14611.4
14499
14363.2
14201.8
14012.2
13792.5
13541
13256.6
12938.8
12587.7
12204
11789.3
11345.8
10876.5
10384.8
9874.78
9351.07
8818.49
8282.11
7747.05
7218.38
6700.96
6199.35
5717.63
5259.41
4827.68
4424.83
4052.58
3712.02
3403.63
3127.3
2882.45
2668.03
2482.67
2324.69
2192.25
2083.34
1995.93
1927.96
1877.43
1842.41
1821.05
1811.65
1812.62
1822.5
1839.98
1863.88
1893.15
1926.85
1964.2
2004.53
2047.29
2092.04
2138.47
2186.37
2235.62
2286.2
2338.18
2391.69
2446.91
2504.09
2563.5
2625.42
2690.16
2758.01
2829.23
2904.07
2982.68
3065.16
3151.51
3241.59
3335.15
3431.77
3530.9
3631.85
3733.79
3835.81
3936.91
4036.1
4132.37
4224.76
4312.4
4394.54
4470.49
4539.73
4601.82
4656.43
4703.31
4742.28
4773.27
4796.23
4811.24
4818.46
4818.13
4810.63
4796.45
4776.16
4750.43
4719.99
4685.57
4647.87
4607.52
4565.05
4520.86
4475.17
4428.1
4379.61
4329.57
4277.79
4224.07
4168.25
4110.24
4050.06
3987.87
3923.98
3858.83
3793.01
3727.22