<?xml version="1.0"?>
<VTKFile type="PolyData" version="0.1" byte_order="LittleEndian">
  <PolyData>
    <Piece NumberOfPoints="50000" NumberOfVerts="50000" NumberOfLines="0" NumberOfStrips="0" NumberOfPolys="0">
      <Points>
        <DataArray type="Float32" NumberOfComponents="3" format="ascii">
0.401347 0.0082435 0
-0.381621 0.00273005 0
0.388968 -0.00294725 0
0.406151 -0.00244408 0
-0.332109 0.00613905 0
-0.279068 0.00200146 0
0.133516 -0.0262753 0
-0.343094 -0.000171603 0
0.117757 -0.0205253 0
-0.0273403 0.00885034 0
0.305123 -0.0129501 0
0.387362 0.00748128 0
-0.22375 0.00690561 0
-0.159031 -0.0247549 0
-0.416911 0.0021307 0
0.31462 0.0120184 0
-0.058449 -0.00233879 0
0.402866 0.00133635 0
0.152615 0.00119077 0
-0.382145 0.00356985 0
-0.400344 0.00539691 0
0.349146 0.00649236 0
-0.395203 0.0024071 0
0.392731 -0.000332375 0
0.250173 -0.0130342 0
0.292616 0.0127189 0
-0.391983 -0.0077527 0
0.403347 -0.0037295 0
-0.280752 0.0234585 0
-0.412513 0.00898787 0
-0.310626 0.0119744 0
-0.288858 -0.0167764 0
0.399498 0.000487026 0
0.402191 -0.00136408 0
0.0764205 0.00493922 0
0.408943 -0.00196186 0
0.12402 0.0012687 0
-0.409043 0.00241219 0
-0.38295 -0.00542309 0
-0.425596 -0.00266701 0
0.294968 0.0129605 0
0.311761 0.00592772 0
-0.390722 -0.0024921 0
0.396965 0.000393506 0
0.411412 0.00101576 0
-0.402364 0.00865432 0
0.391128 0.00466175 0
0.200519 -0.0152792 0
0.386168 3.85815e-05 0
0.395354 -0.000129084 0
0.16573 0.0214155 0
-0.394441 -0.00115939 0
-0.274386 0.00934899 0
0.390203 0.00264323 0
-0.388358 0.00236616 0
-0.414001 0.00251787 0
0.401848 -0.00157515 0
0.162176 0.0114775 0
0.300554 0.00737359 0
0.414889 -0.00520687 0
0.338824 0.00456635 0
0.406122 0.00238386 0
0.0893997 -0.0325377 0
0.414862 -0.00204432 0
-0.13397 0.0168654 0
-0.387163 0.00138414 0
0.39429 -0.0011712 0
0.405111 -0.000897413 0
0.41905 0.00381711 0
0.290038 0.000761196 0
-0.391778 0.00322965 0
0.393724 0.00351737 0
0.214973 0.00101216 0
0.219826 0.00665825 0
0.187419 0.00499186 0
-0.397469 -0.00254978 0
0.344321 0.0123396 0
-0.377427 0.00430601 0
0.303653 0.00670755 0
-0.413109 0.00161428 0
-0.208461 -0.0339283 0
-0.404683 0.00439434 0
0.372228 0.00490132 0
-0.393348 0.000642833 0
0.414377 -0.00497911 0
-0.394415 0.00331609 0
0.415104 -0.0048837 0
-0.177639 -0.00860809 0
-0.171895 0.0229269 0
-0.397749 -0.00713261 0
0.390166 0.00646369 0
-0.38908 -0.000626902 0
0.392165 -0.00199007 0
-0.268393 0.0194988 0
-0.0407064 -0.0219157 0
-0.35011 0.00524233 0
0.391385 0.00851132 0
-0.401165 0.00325116 0
-0.42316 0.00733514 0
-0.419727 -0.00102627 0
-0.351974 -0.00756128 0
-0.390528 -0.00563005 0
0.417847 -0.00081118 0
-0.169417 -0.0206404 0
0.420805 -0.000678026 0
0.344531 0.0125134 0
0.253395 0.00654524 0
0.0201528 0.00778009 0
0.386792 0.00437454 0
-0.395775 -0.00461616 0
-0.298644 0.0195585 0
-0.401563 0.00316152 0
-0.342802 0.0104756 0
296.124 428.359 0
0.263799 0.00721229 0
-0.395779 0.00355851 0
-0.410402 0.0044105 0
7.60774 10.4071 0
-0.398629 0.00164949 0
-0.020506 -0.0087316 0
0.403498 -0.00155289 0
-0.384522 -0.00377046 0
0.272275 -0.00358894 0
-0.367755 0.0073577 0
0.396075 -0.000812747 0
0.384955 -0.00107065 0
0.126459 0.0237159 0
0.406916 0.00427701 0
-0.356651 -0.00687284 0
0.307087 -0.00101086 0
0.409204 -0.00328202 0
0.405939 -0.00053574 0
-0.421483 0.000739925 0
-0.351648 0.00400427 0
0.415705 -0.00191963 0
0.39511 -0.00114896 0
0.381037 -0.00289821 0
-0.0636865 0.0030606 0
0.318623 -0.0141694 0
0.309972 -0.0119201 0
0.318488 -0.0143965 0
0.377982 0.00947058 0
0.408344 -0.00349419 0
-0.0951344 -0.0139466 0
-0.408578 0.00667677 0
0.271218 -0.0224561 0
-0.26185 0.0198668 0
-0.403076 0.00196338 0
-0.288408 -0.01981 0
-0.404336 0.00364534 0
0.308201 0.00725916 0
0.392457 0.00214718 0
-0.123017 -0.011797 0
0.319626 -0.0103336 0
0.317849 0.00822553 0
0.389147 0.00375615 0
0.266494 -0.00972549 0
-0.396204 0.00274259 0
-0.171221 -0.00600474 0
0.407184 -0.000500608 0
0.27204 -0.00173667 0
-0.359559 -0.00299427 0
-0.389282 0.00247801 0
-0.404739 0.00254383 0
-0.104929 0.00986115 0
0.313679 -0.00639139 0
0.354563 -0.00566665 0
0.359157 0.00355749 0
0.30017 0.00775881 0
-0.166581 0.000504023 0
0.419395 -0.00500008 0
-0.38804 0.00305511 0
-0.0923623 -0.00594126 0
0.405301 0.00419247 0
-0.0743649 -0.00351784 0
-0.313518 0.0155627 0
-0.389088 0.00243506 0
-0.236974 -0.011041 0
-0.394436 -0.0023624 0
-0.396149 -0.00660067 0
0.388592 -0.000218679 0
-0.400707 0.00633668 0
-0.394626 0.00533735 0
0.401162 0.00518782 0
0.391399 -0.00104132 0
0.302693 -0.0173244 0
0.420289 -0.00353995 0
0.415881 0.000299305 0
0.403217 -0.0038117 0
0.0449195 0.0293316 0
0.410098 -0.00377953 0
0.332137 -0.00919316 0
-0.267716 -0.0183515 0
0.369692 0.00626929 0
-0.366757 0.00626736 0
0.388507 0.00160116 0
-0.326849 0.0116039 0
-0.348234 0.0052059 0
-0.390731 0.00377416 0
0.393382 0.00478698 0
-0.26122 0.0187777 0
0.414811 0.002571 0
0.359817 -0.00556554 0
-0.0823344 -0.00715393 0
0.42008 -0.00510118 0
-0.385062 -0.0080316 0
0.054542 0.0475532 0
0.166461 -0.00673272 0
-0.348802 0.0105782 0
-0.245903 -0.0102155 0
0.38471 0.000440315 0
-0.171681 -0.0209864 0
0.362561 -0.00377372 0
-0.337108 0.0108917 0
-0.23126 -0.0158372 0
-0.404668 0.00597401 0
-0.399273 0.00760096 0
0.398758 -0.000429045 0
-0.41049 -0.0014863 0
-0.0485 0.0208279 0
-0.315857 0.0115995 0
-0.409633 0.00354087 0
-0.380415 -0.00646511 0
0.416582 -0.00307947 0
0.147491 0.0244902 0
-0.389319 0.00295005 0
0.418803 0.000995051 0
0.401733 -0.000974203 0
-0.346126 0.00963908 0
-0.407952 -0.000681091 0
-0.401464 -0.00390848 0
0.390784 0.0040979 0
0.203697 0.023415 0
-0.0622276 0.0148481 0
-0.415532 0.00433034 0
-0.357827 0.00578206 0
0.307388 -0.0175937 0
-0.315046 -0.00455078 0
-0.397123 0.00322919 0
0.243407 -0.00304458 0
0.411101 -0.000176233 0
-0.364592 -0.00685994 0
-0.40167 0.00326987 0
-0.232578 -0.0140839 0
0.200728 0.00669321 0
0.359002 0.00403712 0
-0.379317 0.00691962 0
0.402075 -0.000971206 0
0.414024 0.00251505 0
0.237407 0.0123888 0
0.247635 0.00424018 0
-0.377731 0.00494705 0
0.388497 -0.0030667 0
-0.17896 -0.00948604 0
-0.365441 0.00801335 0
0.389051 -0.000421565 0
-0.354209 0.00781197 0
0.344424 0.00883716 0
0.14924 0.0232171 0
0.215293 0.000141534 0
0.413813 0.000770113 0
-0.377591 0.00477484 0
0.075489 -0.00834592 0
0.0376807 -0.0140502 0
-0.269433 0.00330587 0
-0.39654 0.000963401 0
-0.390539 0.00281643 0
-0.387777 -0.00148995 0
0.398525 -0.00116889 0
0.395483 -0.00094336 0
0.407372 -0.00109314 0
-0.40008 -0.00295299 0
0.261364 0.0029391 0
0.0214794 0.0123341 0
-0.417871 0.00492051 0
-0.406323 0.00218417 0
0.387057 -0.000537082 0
-0.388357 0.00290015 0
0.384396 0.00635266 0
-0.393983 -0.00154883 0
-0.382112 -0.000243095 0
-0.177099 -0.0229566 0
-0.400261 0.0023559 0
0.377933 -0.00232256 0
-0.340255 0.0105816 0
-0.383267 -0.00331217 0
-0.152246 0.0197048 0
-0.399068 0.00316203 0
-0.405402 0.00369196 0
0.340859 -0.0032201 0
-0.142472 0.00664757 0
0.397972 -0.00108459 0
0.406708 -0.00304683 0
0.259323 0.013716 0
0.413168 0.00316138 0
0.392168 0.00603241 0
0.411583 0.0040636 0
-0.274479 0.0231058 0
-0.374881 0.00194964 0
-0.416815 0.000824606 0
0.422063 0.000764556 0
-0.0565811 0.00723478 0
0.396652 -0.0019074 0
0.387093 0.00313043 0
0.408456 -0.000893278 0
0.06987 0.012026 0
-0.210475 0.0247933 0
0.343969 0.00521906 0
-0.0483766 0.000283948 0
-0.195941 0.00919327 0
-0.327897 0.0113871 0
0.397803 0.00647028 0
-0.290341 0.0143613 0
0.36826 -0.00548173 0
0.303464 -0.00486 0
-0.415421 0.00615665 0
0.32377 -0.0147717 0
0.417708 -0.00532906 0
0.373513 -0.00314403 0
0.399126 0.00722204 0
-0.405291 0.00525422 0
-0.0890413 0.0148631 0
0.407356 0.00192575 0
0.405446 -0.00108751 0
0.18707 0.0245469 0
-0.386725 -0.00053415 0
-0.379451 0.00491278 0
0.417407 0.000347051 0
-0.387912 -0.00310885 0
0.402529 0.00232824 0
0.405411 -0.00257478 0
0.194135 -0.0234352 0
0.388404 0.00336285 0
-0.39807 0.00321194 0
-0.340622 -0.000707962 0
-0.228807 -0.00262413 0
0.0320006 -0.00782138 0
0.0482944 -0.0293386 0
-0.365163 0.00326228 0
0.180585 -0.0260123 0
-0.0427466 0.0402627 0
-0.410995 0.00597375 0
-0.293813 0.0134586 0
-0.401234 0.00434739 0
-0.166443 -0.0136134 0
0.405154 0.00669047 0
-0.285319 0.0151308 0
-0.406094 -0.000125118 0
-65.4084 270.544 0
0.404275 -0.00536734 0
0.403226 -0.00124219 0
-0.33106 0.0139852 0
0.392001 0.0028137 0
0.371914 -0.00113417 0
-584.605 -1045.47 0
0.12358 0.0144521 0
-0.401945 0.00363104 0
-0.334305 -0.00254255 0
0.400386 0.00338909 0
4.13201 -8.51254 0
0.378984 0.00484368 0
-0.393374 -0.00603807 0
-0.25128 0.000173742 0
-0.399494 -0.0033242 0
-0.407304 0.00663559 0
0.397384 -0.00113059 0
-0.413703 -0.00149398 0
-0.358708 0.009039 0
0.311879 0.0123864 0
-0.389853 -4.59539e-06 0
-0.324985 0.0139997 0
-0.360499 0.00808691 0
0.401533 0.00407725 0
0.362042 -0.00705133 0
-0.240138 0.018859 0
0.412773 -0.002189 0
-0.40213 -0.00567045 0
-0.374167 -0.00368337 0
-0.406481 0.00120349 0
0.0350437 -0.0310936 0
-0.391335 -0.00536571 0
0.395996 0.00411142 0
-0.398898 0.00360069 0
-0.396718 0.00192692 0
-0.0979114 0.0149615 0
0.259342 0.0135288 0
-0.129881 0.0361877 0
0.0852833 0.0204476 0
-0.402474 0.00383899 0
-0.0729216 0.00352512 0
-0.403199 -0.00100996 0
-0.405292 0.00541352 0
0.387063 -0.00591294 0
0.341022 0.00928145 0
-0.379219 0.00632239 0
0.359678 0.00474092 0
0.357313 0.00125719 0
-0.38675 0.00299165 0
-0.213614 -0.00711016 0
0.282685 -0.0172293 0
-0.387192 0.00078995 0
0.342342 -0.00894739 0
0.156665 -0.00485347 0
-0.398031 -0.00103405 0
0.371885 -0.000698982 0
0.391213 -0.00240133 0
0.397252 -0.00478987 0
0.404718 -0.00164244 0
0.411604 -5.99092e-05 0
0.390048 0.00675571 0
-0.400596 0.00271347 0
0.287884 0.00955031 0
-0.331044 -0.00506197 0
0.189085 0.0265329 0
-0.377168 0.00267218 0
-0.13487 -0.00561348 0
-0.312868 0.0116457 0
0.114057 -0.014007 0
-0.408937 0.00384862 0
0.390597 -0.00115083 0
-0.110348 0.0293697 0
0.139842 0.0154269 0
-0.414439 0.00332695 0
0.393421 0.00178258 0
0.405557 -0.000763213 0
0.387428 0.00850597 0
0.414152 -0.00473165 0
-0.39514 0.00320255 0
-0.407632 0.00246975 0
[...]
      <PointData Scalars="T">
        <DataArray type="Float32" Name="T" format="ascii" NumberOfComponents="1">
315.28
434.739
314.624
314.624
434.739
434.739
314.624
448.179
314.624
434.739
314.624
315.28
434.739
448.179
434.739
315.28
448.179
304.986
303.381
434.739
434.739
315.28
434.739
314.624
314.624
315.28
448.179
314.624
434.739
434.739
434.739
448.179
306.765
314.624
315.28
314.624
303.511
434.739
448.179
448.179
315.28
315.28
448.179
309.402
301.622
434.739
315.28
314.624
326.389
314.624
315.28
448.179
434.739
315.28
434.739
434.739
314.624
315.28
315.28
314.624
315.28
315.28
314.624
314.624
434.739
814.276
314.624
314.624
315.28
302.85
434.739
315.28
301.622
315.28
315.28
448.179
315.28
434.739
315.28
730.93
448.179
434.739
315.28
721.646
314.624
434.739
314.624
448.179
434.739
448.179
315.28
448.179
314.624
434.739
448.179
434.739
315.28
434.739
434.739
448.179
448.179
448.179
314.624
448.179
314.624
315.28
315.28
315.28
315.28
448.179
434.739
434.739
434.739
315.28
315.28
434.739
434.739
315.28
740.41
448.179
314.624
448.179
314.624
434.739
314.624
314.624
315.28
315.28
448.179
314.624
314.624
314.624
849.393
434.739
314.624
314.624
314.624
434.739
314.624
314.624
314.624
315.28
314.624
448.179
434.739
314.624
434.739
434.739
448.179
434.739
315.28
315.28
448.179
314.624
315.28
315.28
314.624
434.739
448.179
314.624
314.624
448.179
434.739
434.739
434.739
314.624
314.624
315.28
315.28
744.507
314.624
434.739
448.179
315.28
448.179
434.739
434.739
448.179
448.179
448.179
314.624
434.739
434.739
315.28
314.624
314.624
314.624
313.838
314.624
315.28
314.624
314.624
448.179
315.28
434.739
311.96
434.739
434.739
434.739
315.28
434.739
315.28
314.624
448.179
314.624
448.179
315.28
314.624
434.739
448.179
308.141
448.179
314.624
434.739
448.179
434.739
434.739
314.624
448.179
434.739
434.739
434.739
448.179
314.624
315.28
434.739
301.709
314.624
434.739
448.179
448.179
315.28
315.28
434.739
434.739
434.739
314.624
448.179
434.739
314.624
314.624
448.179
434.739
448.179
315.28
315.28
434.739
314.624
315.28
315.28
315.28
434.739
314.624
448.179
434.739
314.624
434.739
315.28
315.28
318.524
302.707
434.739
314.624
314.624
434.739
758.872
434.739
448.179
314.624
314.624
314.624
448.179
315.28
315.28
434.739
434.739
314.624
434.739
315.28
448.179
448.179
448.179
434.739
314.624
434.739
448.179
434.739
434.739
434.739
314.624
434.739
314.624
314.624
315.28
315.28
315.28
315.28
434.739
434.739
754.46
302.85
434.739
314.624
315.28
314.624
315.28
434.739
315.28
709.676
434.739
434.739
315.28
434.739
314.624
314.624
434.739
314.624
314.624
314.624
315.28
434.739
434.739
315.28
314.624
315.28
448.179
434.739
311.44
448.179
315.28
314.624
314.624
315.28
434.739
448.179
448.179
314.624
314.624
434.739
314.624
434.739
434.739
434.739
434.739
448.179
315.28
434.739
448.179
434.739
314.624
314.624
434.739
315.28
314.624
448.179
315.28
434.739
448.179
315.28
314.624
315.28
448.179
720.943
448.179
434.739
314.624
448.179
434.739
315.28
448.179
434.739
434.739
315.28
314.624
434.739
314.624
448.179
448.179
816.333
314.624
448.179
315.28
434.739
434.739
434.739
315.28
434.739
315.28
434.739
434.739
448.179
434.739
314.624
315.28
434.739
315.28
303.547
434.739
448.179
314.624
753.396
314.624
314.624
448.179
314.624
314.624
314.624
314.624
314.624
315.28
434.739
315.28
448.179
315.28
434.739
448.179
434.739
314.624
434.739
314.624
434.739
315.28
434.739
322.086
314.624
315.28
314.624
434.739
434.739
314.624
434.739
315.28
434.739
315.28
813.831
448.179
434.739
434.739
315.28
304.297
434.739
314.624
697.825
448.179
448.179
434.739
448.179
315.28
314.624
448.179
315.28
448.179
448.179
314.624
314.624
448.179
434.739
730.151
448.179
304.769
448.179
316.51
434.739
448.179
314.624
315.28
448.179
448.179
434.739
434.739
315.28
730.422
314.624
314.624
315.28
434.739
434.739
434.739
314.624
315.28
749.036
448.179
448.179
434.739
303.828
315.28
314.624
302.086
434.739
315.28
315.28
301.697
434.739
315.28
314.624
448.179
314.624
434.739
434.739
434.739
448.179
448.179
448.179
448.179
448.179
314.624
314.624
314.624
315.28
314.624
315.28
315.28
448.179
315.28
434.739
314.624
315.28
434.739
315.28
434.739
734.934
434.739
730.31
315.28
314.624
315.28
314.624
314.624
314.624
434.739
315.28
315.28
695.291
315.28
709.531
434.739
448.179
314.624
314.624
434.739
434.739
448.179
448.179
448.179
315.28
315.28
325.695
315.28
448.179
434.739
315.28
434.739
308.141
315.28
448.179
434.739
314.624
434.739
315.28
315.28
448.179
315.28
448.179
314.624
775.881
434.739
303.381
314.624
448.179
448.179
779.449
434.739
434.739
315.28
314.624
314.624
303.708
315.28
448.179
732.026
448.179
448.179
434.739
315.28
314.624
434.739
315.28
448.179
301.787
315.28
317.508
434.739
315.28
448.179
812.942
315.28
314.624
448.179
315.28
434.739
314.624
314.624
315.28
314.624
448.179
448.179
434.739
864.959
315.28
448.179
314.624
448.179
448.179
315.28
314.624
448.179
448.179
434.739
434.739
314.624
314.624
434.739
448.179
448.179
315.28
314.624
434.739
434.739
314.624
314.624
315.28
315.28
434.739
448.179
448.179
448.179
448.179
315.28
434.739
315.28
315.28
448.179
434.739
314.624
314.624
448.179
434.739
314.624
448.179
448.179
434.739
314.624
448.179
434.739
315.28
434.739
434.739
314.624
315.28
434.739
315.28
314.624
434.739
315.28
314.624
434.739
434.739
314.624
314.624
314.624
315.28
315.28
448.179
448.179
434.739
434.739
315.28
434.739
448.179
305.821
315.28
434.739
434.739
434.739
314.624
315.28
315.28
315.28
434.739
314.624
314.624
769.472
434.739
315.28
314.624
315.28
315.28
315.28
434.739
315.28
315.28
314.624
434.739
315.28
434.739
314.624
315.28
314.624
315.28
314.624
434.739
325.695
775.226
315.28
434.739
434.739
434.739
314.624
448.179
315.28
434.739
314.624
315.28
448.179
314.624
770.244
448.179
448.179
434.739
434.739
434.739
314.624
314.624
314.624
314.624
314.624
716.839
315.28
434.739
448.179
314.624
314.624
434.739
304.769
434.739
315.28
434.739
434.739
434.739
448.179
448.179
305.706
434.739
315.28
434.739
448.179
434.739
448.179
448.179
314.624
315.28
314.624
434.739
448.179
434.739
434.739
448.179
434.739
448.179
315.28
434.739
448.179
314.624
314.624
314.624
434.739
434.739
448.179
315.28
448.179
303.61
434.739
448.179
448.179
315.28
314.624
315.28
310.737
314.624
434.739
434.739
314.624
434.739
315.28
434.739
315.28
434.739
448.179
315.28
434.739
308.296
434.739
434.739
314.624
303.562
448.179
315.28
314.624
306.243
315.28
434.739
448.179
448.179
315.28
434.739
310.132
315.28
314.624
314.624
448.179
434.739
313.972
434.739
434.739
314.624
314.624
315.28
314.624
434.739
448.179
315.28
434.739
315.28
315.28
434.739
434.739
315.28
840.712
314.624
314.624
434.739
434.739
314.624
305.575
434.739
448.179
448.179
315.28
307.541
731.523
434.739
434.739
726.88
448.179
314.624
434.739
314.624
434.739
314.624
314.624
745.893
314.624
434.739
315.28
314.624
434.739
448.179
315.28
314.624
315.28
315.28
315.28
315.28
434.739
315.28
314.624
448.179
314.624
315.28
434.739
314.624
314.624
315.28
434.739
434.739
448.179
314.624
448.179
314.624
448.179
434.739
434.739
315.28
448.179
448.179
448.179
314.624
773.466
434.739
314.624
315.28
448.179
448.179
314.624
434.739
314.624
314.624
448.179
315.28
448.179
315.28
314.624
315.28
314.624
315.28
315.28
434.739
315.28
314.624
314.624
434.739
314.624
448.179
434.739
448.179
314.624
315.28
434.739
448.179
434.739
314.624
434.739
434.739
314.624
314.624
315.28
315.28
434.739
434.739
314.624
434.739
315.28
434.739
448.179
308.841
448.179
314.624
434.739
448.179
434.739
434.739
434.739
722.772
448.179
434.739
434.739
315.28
748.752
314.624
314.624
314.624
314.624
315.28
434.739
314.624
434.739
315.28
434.739
315.28
315.28
448.179
315.28
434.739
314.624
315.28
314.624
448.179
314.624
434.739
304.612
448.179
448.179
315.28
448.179
434.739
434.739
448.179
314.624
315.28
315.28
315.28
448.179
314.624
448.179
314.624
313.679
315.28
315.28
315.28
314.624
314.624
448.179
315.28
315.28
448.179
434.739
314.624
434.739
301.697
434.739
448.179
434.739
730.422
448.179
434.739
315.28
448.179
315.28
434.739
314.624
434.739
315.28
434.739
434.739
315.28
315.28
434.739
314.624
315.28
314.624
307.853
448.179
434.739
448.179
853.677
314.624
434.739
319.606
434.739
434.739
314.624
314.624
434.739
315.28
314.624
314.624
314.624
434.739
314.624
315.28
434.739
434.739
434.739
448.179
434.739
314.624
434.739
314.624
448.179
321.48
314.624
315.28
434.739
448.179
448.179
434.739
314.624
315.28
448.179
314.624
302.958
448.179
448.179
314.624
434.739
304.986
314.624
315.28
448.179
434.739
434.739
434.739
315.28
796.293
315.28
727.306
434.739
314.624
315.28
315.28
314.624
315.28
448.179
773.557
448.179
434.739
314.624
315.28
315.28
315.28
315.28
315.28
448.179
434.739
434.739
434.739
448.179
434.739
434.739
321.045
314.624
314.624
314.624
314.624
434.739
314.624
434.739
306.112
448.179
434.739
315.28
434.739
841.04
314.624
821.941
314.624
314.624
314.624
314.624
315.28
315.28
314.624
315.28
448.179
301.671
434.739
315.28
315.28
314.624
448.179
314.624
448.179
315.28
315.28
315.28
315.28
434.739
314.624
434.739
315.28
314.624
314.624
804.124
804.295
794.64
314.624
314.624
448.179
315.28
434.739
315.28
314.624
448.179
434.739
701.922
314.624
315.28
434.739
314.624
434.739
315.28
434.739
434.739
701.922
434.739
314.624
314.624
448.179
434.739
434.739
434.739
314.624
448.179
315.28
434.739
315.28
315.28
434.739
434.739
315.28
434.739
314.624
314.624
314.624
434.739
308.61
314.624
448.179
434.739
314.624
434.739
314.624
434.739
434.739
314.624
448.179
448.179
314.624
314.624
315.28
314.624
315.28
448.179
315.28
315.28
434.739
434.739
314.624
434.739
315.28
301.622
730.422
434.739
315.28
804.124
711.362
302.742
314.624
448.179
434.739
314.624
434.739
748.752
448.179
448.179
434.739
314.624
314.624
434.739
434.739
314.624
448.179
314.624
315.28
315.28
434.739
434.739
314.624
711.362
315.28
434.739
315.28
314.624
715.43
314.624
314.624
448.179
434.739
448.179
448.179
434.739
434.739
434.739
434.739
315.28
314.624
314.624
434.739
314.624
434.739
434.739
314.624
434.739
434.739
315.28
434.739
448.179
314.624
448.179
448.179
315.28
434.739
315.28
315.28
314.624
314.624
434.739
315.28
307.637
434.739
434.739
315.28
434.739
434.739
316.51
314.624
314.624
448.179
314.624
434.739
310.641
314.624
786.459
434.739
434.739
314.624
314.624
434.739
434.739
434.739
448.179
315.28
448.179
314.624
448.179
448.179
314.624
315.28
314.624
448.179
315.28
314.624
315.28
743.332
314.624
764.93
448.179
434.739
434.739
724.584
448.179
448.179
315.28
315.28
448.179
434.739
434.739
314.624
434.739
434.739
434.739
448.179
448.179
314.624
314.624
315.28
434.739
315.28
315.28
314.624
448.179
314.624
319.732
315.28
304.886
315.28
434.739
765.908
790.745
434.739
434.739
314.624
448.179
448.179
315.28
434.739
448.179
434.739
727.493
434.739
434.739
448.179
314.624
448.179
448.179
434.739
448.179
434.739
314.624
448.179
434.739
314.624
314.624
314.624
448.179
448.179
434.739
315.28
434.739
448.179
313.972
434.739
434.739
434.739
315.28
434.739
315.28
315.28
314.624
448.179
314.624
308.003
448.179
785.761
314.624
315.28
448.179
434.739
434.739
314.624
434.739
448.179
434.739
315.28
315.28
314.624
315.28
448.179
434.739
434.739
314.624
315.28
434.739
315.28
315.28
448.179
448.179
448.179
315.28
315.28
315.28
434.739
315.28
773.466
315.28
434.739
434.739
434.739
315.28
314.624
314.624
314.624
448.179
314.624
314.624
745.893
434.739
315.28
315.28
314.624
434.739
314.624
434.739
314.624
315.28
314.624
303.646
448.179
434.739
448.179
315.28
314.624
314.624
314.624
434.739
315.28
434.739
315.28
314.624
315.28
448.179
322.495
434.739
315.28
315.28
314.624
448.179
314.624
314.624
314.624
314.624
315.28
779.518
315.28
314.624
434.739
448.179
448.179
707.536
434.739
434.739
710.26
434.739
314.624
314.624
448.179
315.28
434.739
434.739
434.739
314.624
448.179
448.179
315.28
314.624
315.28
315.28
315.28
434.739
315.28
315.28
314.624
315.28
434.739
310.052
757.311
448.179
448.179
314.624
448.179
434.739
434.739
434.739
434.739
434.739
794.64
434.739
315.28
315.28
314.624
434.739
314.624
434.739
314.624
315.28
434.739
302.132
314.624
315.28
315.28
314.624
735.343
314.624
303.961
434.739
315.28
434.739
315.28
434.739
314.624
314.624
434.739
434.739
448.179
434.739
448.179
434.739
314.624
314.624
314.624
448.179
315.28
434.739
314.624
448.179
315.28
434.739
434.739
448.179
434.739
314.624
314.624
448.179
314.624
315.28
448.179
434.739
314.624
315.28
434.739
315.28
315.28
314.624
314.624
314.624
448.179
434.739
448.179
448.179
315.28
314.624
315.28
303.511
314.624
434.739
796.293
448.179
314.624
303.717
314.624
314.624
434.739
314.624
315.28
315.28
315.28
314.624
315.28
434.739
434.739
434.739
315.28
434.739
434.739
314.624
302.638
314.624
301.629
434.739
315.28
434.739
315.28
315.28
434.739
314.624
448.179
448.179
448.179
314.624
448.179
448.179
434.739
448.179
448.179
434.739
448.179
448.179
746.061
314.624
434.739
434.739
315.28
315.28
314.624
314.624
315.28
434.739
434.739
315.28
448.179
448.179
315.28
434.739
448.179
315.28
315.28
314.624
434.739
434.739
314.624
434.739
434.739
314.624
448.179
303.33
314.624
314.624
314.624
434.739
434.739
434.739
314.624
434.739
434.739
434.739
434.739
448.179
434.739
315.28
448.179
434.739
434.739
315.28
434.739
314.624
434.739
731.024
315.28
434.739
448.179
314.624
314.624
448.179
448.179
790.577
314.624
727.242
434.739
711.362
448.179
434.739
448.179
448.179
315.28
314.624
448.179
434.739
314.624
315.28
314.624
448.179
314.624
314.624
315.28
315.28
434.739
448.179
434.739
434.739
315.28
434.739
315.28
434.739
448.179
448.179
314.624
301.647
448.179
434.739
314.624
740.344
315.28
314.624
315.28
314.624
314.624
315.28
434.739
448.179
448.179
434.739
314.624
314.624
448.179
314.624
729.263
434.739
434.739
448.179
434.739
315.28
314.624
434.739
448.179
315.28
315.28
434.739
314.624
434.739
314.624
314.624
314.624
434.739
315.28
314.624
314.624
315.28
448.179
301.65
448.179
448.179
314.624
314.624
448.179
434.739
315.28
314.624
314.624
448.179
448.179
434.739
315.28
315.28
448.179
315.28
314.624
773.557
314.624
315.28
434.739
448.179
448.179
434.739
434.739
741.247
434.739
434.739
315.28
448.179
302.707
448.179
448.179
315.28
434.739
434.739
434.739
448.179
314.624
434.739
448.179
315.28
434.739
724.474
434.739
315.28
314.624
315.28
314.624
448.179
448.179
434.739
448.179
434.739
434.739
448.179
434.739
434.739
314.624
315.28
315.28
313.708
306.765
448.179
448.179
315.28
315.28
448.179
448.179
434.739
314.624
434.739
434.739
434.739
314.624
434.739
314.624
315.28
304.945
314.624
434.739
315.28
434.739
434.739
448.179
315.28
434.739
315.28
304.297
315.28
314.624
434.739
448.179
320.276
314.624
303.61
315.28
315.28
314.624
448.179
314.624
314.624
434.739
797.517
434.739
314.624
314.624
314.624
434.739
434.739
434.739
315.28
434.739
315.28
696.961
321.214
314.624
314.624
314.624
434.739
315.28
448.179
319.732
314.624
315.28
434.739
448.179
448.179
434.739
448.179
448.179
324.089
434.739
448.179
314.624
314.624
315.28
434.739
434.739
448.179
448.179
315.28
434.739
448.179
448.179
315.28
434.739
785.761
314.624
434.739
315.28
448.179
314.624
434.739
448.179
315.28
434.739
314.624
448.179
434.739
314.624
315.28
448.179
434.739
434.739
314.624
434.739
448.179
314.624
448.179
315.28
315.28
810.898
315.28
314.624
314.624
314.624
309.669
448.179
314.624
315.28
773.816
315.28
434.739
448.179
448.179
434.739
448.179
314.624
448.179
315.28
315.28
315.28
314.624
315.28
314.624
314.624
315.28
448.179
315.28
315.28
448.179
314.624
314.624
315.28
302.638
448.179
314.624
314.624
448.179
315.28
448.179
448.179
314.624
434.739
434.739
314.624
434.739
315.28
308.841
315.28
314.624
314.624
314.624
314.624
314.624
304.142
434.739
448.179
817.884
315.28
319.606
434.739
314.624
314.624
448.179
314.624
315.28
314.624
314.624
314.624
434.739
315.28
314.624
434.739
314.624
448.179
315.28
314.624
315.28
434.739
448.179
315.28
434.739
434.739
314.624
314.624
314.624
434.739
315.28
301.87
785.873
434.739
314.624
314.624
315.28
448.179
448.179
448.179
314.624
315.28
314.624
448.179
434.739
314.624
319.704
315.28
315.28
314.624
434.739
315.28
448.179
315.28
434.739
434.739
315.28
315.28
434.739
697.825
315.28
448.179
786.459
732.283
758.872
434.739
434.739
448.179
314.624
314.624
448.179
315.28
448.179
315.28
314.624
448.179
314.624
314.624
434.739
314.624
694.863
695.788
434.739
434.739
315.28
315.28
314.624
448.179
314.624
448.179
314.624
314.624
434.739
448.179
434.739
316.51
307.637
315.28
314.624
448.179
314.624
434.739
314.624
434.739
314.624
434.739
434.739
315.28
314.624
448.179
314.624
434.739
315.28
434.739
448.179
448.179
448.179
314.624
434.739
448.179
701.922
448.179
448.179
314.624
434.739
314.624
314.624
315.28
314.624
315.28
314.624
434.739
448.179
709.676
315.28
315.28
434.739
314.624
314.624
314.624
314.624
434.739
434.739
315.28
315.28
314.624
314.624
770.244
301.622
448.179
434.739
434.739
314.624
434.739
302.958
448.179
314.624
434.739
448.179
315.28
434.739
315.28
314.624
315.28
796.7
448.179
323.671
314.624
314.624
314.624
315.28
448.179
315.28
314.624
434.739
314.624
315.28
314.624
448.179
315.28
315.28
448.179
434.739
701.922
323.898
314.624
434.739
434.739
841.04
448.179
314.624
314.624
434.739
448.179
314.624
448.179
434.739
434.739
314.624
315.28
448.179
773.342
448.179
314.624
448.179
448.179
315.28
315.28
315.28
315.28
434.739
448.179
448.179
448.179
315.28
314.624
315.28
314.624
434.739
434.739
434.739
434.739
448.179
434.739
434.739
310.726
315.28
314.624
314.624
448.179
448.179
434.739
434.739
434.739
314.624
711.362
315.28
315.28
314.624
448.179
448.179
314.624
315.28
314.624
448.179
315.28
434.739
434.739
314.624
314.624
314.624
314.624
315.28
315.28
315.28
315.28
314.624
314.624
434.739
314.624
434.739
315.28
434.739
434.739
434.739
314.624
314.624
806.559
315.28
434.739
448.179
434.739
448.179
314.624
434.739
737.673
314.624
302.294
448.179
434.739
434.739
739.793
314.624
314.624
314.624
448.179
302.704
317.508
314.624
802.051
448.179
314.624
315.28
315.28
315.28
314.624
315.28
448.179
314.624
301.629
315.28
434.739
434.739
434.739
434.739
434.739
314.624
448.179
801.433
434.739
434.739
434.739
315.28
314.624
314.624
434.739
314.624
314.624
314.624
314.624
315.28
434.739
434.739
448.179
314.624
434.739
314.624
448.179
314.624
726.88
721.962
434.739
315.28
448.179
448.179
315.28
448.179
311.96
434.739
314.624
315.28
315.28
802.005
315.28
434.739
448.179
314.624
434.739
314.624
314.624
315.28
315.28
315.28
434.739
315.28
765.908
448.179
304.769
448.179
448.179
753.396
314.624
434.739
434.739
434.739
314.624
448.179
434.739
315.28
314.624
314.624
448.179
434.739
301.642
434.739
434.739
315.28
448.179
434.739
448.179
434.739
448.179
434.739
434.739
310.054
315.28
434.739
448.179
314.624
314.624
448.179
434.739
315.28
318.524
315.28
434.739
434.739
314.624
448.179
434.739
448.179
306.112
314.624
314.624
315.28
315.28
315.28
315.28
314.624
434.739
448.179
732.283
730.151
448.179
434.739
315.28
434.739
315.28
319.816
434.739
314.624
315.28
448.179
448.179
307.637
434.739
434.739
315.28
434.739
434.739
434.739
434.739
448.179
434.739
448.179
434.739
434.739
315.28
448.179
448.179
434.739
448.179
315.28
317.377
315.28
315.28
434.739
448.179
314.624
434.739
434.739
448.179
314.624
314.624
434.739
448.179
315.28
314.624
448.179
434.739
448.179
448.179
434.739
314.624
434.739
448.179
315.28
315.28
434.739
448.179
314.624
314.624
434.739
448.179
434.739
434.739
802.051
314.624
315.28
315.28
315.28
315.28
434.739
314.624
314.624
315.28
434.739
448.179
434.739
448.179
315.28
314.624
314.624
314.624
434.739
434.739
434.739
314.624
434.739
303.961
448.179
314.624
434.739
315.28
314.624
434.739
794.664
434.739
314.624
434.739
434.739
448.179
314.624
434.739
314.624
434.739
448.179
315.28
314.624
448.179
434.739
314.624
315.28
315.28
315.28
314.624
434.739
315.28
314.624
434.739
434.739
314.624
314.624
434.739
434.739
721.646
314.624
314.624
434.739
314.624
315.28
434.739
315.28
303.381
790.745
448.179
434.739
315.28
434.739
448.179
314.624
434.739
314.624
314.624
794.6
315.28
448.179