<?xml version="1.0"?>
<VTKFile type="PolyData" version="0.1" byte_order="LittleEndian">
  <PolyData>
    <Piece NumberOfPoints="50000" NumberOfVerts="50000" NumberOfLines="0" NumberOfStrips="0" NumberOfPolys="0">
      <Points>
        <DataArray type="Float32" NumberOfComponents="3" format="ascii">
0.337467 0.00709488 0
-0.320538 0.00243903 0
0.326982 -0.0023169 0
0.341454 -0.00189107 0
-0.278879 0.00530631 0
-0.234296 0.00183132 0
0.112261 -0.0219058 0
-0.2882 -2.51204e-06 0
0.0990537 -0.0170828 0
-0.0227786 0.00757867 0
0.256466 -0.0107218 0
0.325723 0.00645637 0
-0.187832 0.00595186 0
-0.133371 -0.0206336 0
-0.350165 0.00193501 0
0.264424 0.0102535 0
-0.0489371 -0.00181209 0
0.338664 0.00128454 0
0.12836 0.00115583 0
-0.320955 0.00314584 0
-0.336282 0.00467824 0
0.293464 0.00561197 0
-0.331913 0.00216894 0
0.330202 -0.000115738 0
0.210314 -0.0107933 0
0.245931 0.0108417 0
-0.32913 -0.006364 0
0.339121 -0.00296987 0
-0.235635 0.0198531 0
-0.346494 0.00769482 0
-0.260808 0.0102099 0
-0.242443 -0.0139397 0
0.335902 0.000574286 0
0.33811 -0.000985421 0
0.0643426 0.00430322 0
0.343809 -0.00148563 0
0.104342 0.00122085 0
-0.343618 0.00216827 0
-0.321557 -0.00440829 0
-0.357405 -0.00209405 0
0.247903 0.0110445 0
0.262057 0.00513705 0
-0.328224 -0.00195309 0
0.333774 0.000495613 0
0.345843 0.00101526 0
-0.337966 0.00741454 0
0.328885 0.00408449 0
0.168587 -0.0126779 0
0.324675 0.000194879 0
0.332406 5.51682e-05 0
0.139317 0.0181403 0
-0.331348 -0.000832805 0
-0.230367 0.00800398 0
0.328092 0.00238608 0
-0.326208 0.00213191 0
-0.347719 0.00226002 0
0.33787 -0.00115895 0
0.136363 0.00979564 0
0.252643 0.00635204 0
0.348819 -0.00421066 0
0.284807 0.00399427 0
0.341478 0.00217049 0
0.0752198 -0.0271634 0
0.348768 -0.00155552 0
-0.112374 0.0143173 0
-0.325224 0.00130566 0
0.331483 -0.000822454 0
0.340534 -0.000594204 0
0.352229 0.0033676 0
0.243831 0.000797187 0
-0.329053 0.00285969 0
0.331046 0.00312067 0
0.180875 0.00101903 0
0.184804 0.00575281 0
0.157602 0.0043494 0
-0.333894 -0.00200175 0
0.289363 0.0105225 0
-0.316985 0.00376506 0
0.255235 0.00579162 0
-0.346964 0.00150203 0
-0.174849 -0.0283317 0
-0.339915 0.00383647 0
0.312992 0.0042847 0
-0.330422 0.000682304 0
0.348389 -0.00401943 0
-0.331261 0.00293246 0
0.348984 -0.00394027 0
-0.149056 -0.00707894 0
-0.144208 0.019406 0
-0.334137 -0.00585496 0
0.328076 0.00559907 0
-0.326842 -0.000385076 0
0.329672 -0.00151198 0
-0.225279 0.0165291 0
-0.0340052 -0.0182422 0
-0.294026 0.00455257 0
0.329101 0.00732088 0
-0.336947 0.0028772 0
-0.355439 0.00630657 0
-0.352492 -0.000715694 0
-0.29552 -0.00620429 0
-0.328068 -0.00459153 0
0.351259 -0.000519304 0
-0.142102 -0.0171816 0
0.353744 -0.000408173 0
0.289543 0.0106686 0
0.213162 0.0056697 0
0.0170423 0.00668078 0
0.325106 0.0038338 0
-0.332484 -0.0037401 0
-0.25069 0.016579 0
-0.337298 0.00280113 0
-0.287842 0.00894984 0
246.934 357.203 0
0.221764 0.00621848 0
-0.332416 0.00313612 0
-0.344712 0.00384972 0
6.34051 8.67356 0
-0.334865 0.00152778 0
-0.0170392 -0.0071685 0
0.339249 -0.00114104 0
-0.323033 -0.0030304 0
0.228952 -0.00285126 0
-0.308833 0.00633014 0
0.332972 -0.000522159 0
0.323643 -0.000738037 0
0.106332 0.0200692 0
0.342026 0.00375315 0
-0.299449 -0.00562609 0
0.258147 -0.000691659 0
0.344018 -0.00259481 0
0.341254 -0.000288945 0
-0.353991 0.000767372 0
-0.295308 0.00351196 0
0.349507 -0.00144886 0
0.332199 -0.000801843 0
0.320321 -0.00227582 0
-0.0533286 0.002723 0
0.267796 -0.0117452 0
0.26055 -0.0098568 0
0.267683 -0.0119365 0
0.317673 0.00811433 0
0.343315 -0.00277236 0
-0.079737 -0.01156 0
-0.343186 0.00575338 0
0.227929 -0.0187028 0
-0.219784 0.0168381 0
-0.338547 0.00179466 0
-0.242038 -0.0164846 0
-0.339615 0.00320723 0
0.259065 0.00625583 0
0.329975 0.00196858 0
-0.103165 -0.0097561 0
0.268674 -0.00852428 0
0.267169 0.00706816 0
0.327221 0.00332337 0
0.224038 -0.00801333 0
-0.332808 0.00244799 0
-0.143674 -0.00489251 0
0.342347 -0.000256696 0
0.228726 -0.00130133 0
-0.302041 -0.00237579 0
-0.326992 0.00222573 0
-0.339987 0.00228029 0
-0.0879862 0.0084351 0
0.263693 -0.00521167 0
0.298056 -0.00460264 0
0.30189 0.00314676 0
0.252463 0.0066893 0
-0.13978 0.000574908 0
0.35259 -0.00403797 0
-0.32594 0.0027116 0
-0.0774315 -0.00483848 0
0.340795 0.00369084 0
-0.0622941 -0.00280137 0
-0.263206 0.0132234 0
-0.326822 0.00219026 0
-0.198871 -0.00912416 0
-0.33134 -0.00184397 0
-0.332792 -0.00540769 0
0.326711 -2.14163e-05 0
-0.336602 0.00546688 0
-0.331486 0.00462779 0
0.33731 0.00452587 0
0.329054 -0.000713443 0
0.254401 -0.0143953 0
0.353342 -0.00281127 0
0.349599 0.000413583 0
0.339002 -0.00303958 0
0.0378419 0.0247695 0
0.344777 -0.00301274 0
0.27919 -0.00756598 0
-0.224669 -0.0152607 0
0.310737 0.00542628 0
-0.307999 0.00541384 0
0.326655 0.00150939 0
-0.274434 0.00989801 0
-0.292452 0.00452201 0
-0.328163 0.00331759 0
0.330779 0.00418987 0
-0.219261 0.0159236 0
0.348683 0.00232112 0
0.302469 -0.00451759 0
-0.0690015 -0.00585594 0
0.353158 -0.00412295 0
-0.323478 -0.00661155 0
0.0458807 0.040031 0
0.140005 -0.00550018 0
-0.292885 0.00903635 0
-0.206392 -0.00842987 0
0.323456 0.000533377 0
-0.144002 -0.017472 0
0.304786 -0.00301185 0
-0.28306 0.00929985 0
-0.194066 -0.0131507 0
-0.339915 0.00516301 0
-0.335383 0.00652967 0
0.335266 -0.000196807 0
-0.344728 -0.00110195 0
-0.0405807 0.0176427 0
-0.265199 0.00989441 0
-0.344051 0.00311888 0
-0.319418 -0.00528219 0
0.350218 -0.00242466 0
0.123981 0.0207183 0
-0.327021 0.00262263 0
0.35204 0.000996658 0
0.337766 -0.000654822 0
-0.290644 0.00824724 0
-0.342709 -0.000432177 0
-0.337266 -0.00314588 0
0.328595 0.00361019 0
0.171202 0.0198188 0
-0.0521139 0.0126219 0
-0.349039 0.00378222 0
-0.300501 0.00500611 0
0.258343 -0.0146212 0
-0.264511 -0.00367625 0
-0.333543 0.00285923 0
0.204657 -0.00240056 0
0.345577 1.26519e-05 0
-0.306283 -0.00562782 0
-0.3374 0.00289094 0
-0.195169 -0.0116786 0
0.168777 0.00577868 0
0.301758 0.00354971 0
-0.318534 0.00596176 0
0.338047 -0.000652738 0
0.348009 0.00227306 0
0.199561 0.0105626 0
0.208183 0.00371829 0
-0.317234 0.004304 0
0.32658 -0.00241721 0
-0.150156 -0.00781562 0
-0.306883 0.00688109 0
0.327078 -0.000192981 0
-0.297449 0.00671209 0
0.289467 0.00758052 0
0.125462 0.0196518 0
0.181061 0.000281861 0
0.347856 0.000809156 0
-0.317118 0.0041593 0
0.0635524 -0.00685422 0
0.0317972 -0.0116439 0
-0.226218 0.00292691 0
-0.333111 0.000951289 0
-0.328021 0.00251197 0
-0.325762 -0.00111213 0
0.335063 -0.00081893 0
0.332464 -0.000631993 0
0.34247 -0.000757063 0
-0.336103 -0.00234293 0
0.219732 0.00262604 0
0.0181233 0.010477 0
-0.350995 0.00427829 0
-0.341276 0.00198019 0
0.325415 -0.000289046 0
-0.326188 0.00258256 0
0.323086 0.00549608 0
-0.330957 -0.00115994 0
-0.320901 -5.89111e-05 0
-0.148557 -0.0191264 0
-0.336212 0.00212315 0
0.317717 -0.00179186 0
-0.285705 0.00903929 0
-0.321843 -0.00263533 0
-0.127721 0.0167016 0
-0.335234 0.00279872 0
-0.340511 0.00324639 0
0.286566 -0.00254678 0
-0.119548 0.00573587 0
0.334592 -0.000748784 0
0.341928 -0.00239719 0
0.217974 0.0116784 0
0.347297 0.00281712 0
0.329752 0.00523565 0
0.345953 0.00357484 0
-0.230369 0.0195573 0
-0.314891 0.00178142 0
-0.350062 0.000839122 0
0.354791 0.000803806 0
-0.0473708 0.00623054 0
0.333467 -0.0014402 0
0.325474 0.00279565 0
0.343375 -0.000588776 0
0.0588304 0.0102548 0
-0.176603 0.0209733 0
0.289127 0.00454269 0
-0.0404776 0.000390302 0
-0.16446 0.0078739 0
-0.275317 0.00971611 0
0.334497 0.00560634 0
-0.243746 0.0122148 0
0.309563 -0.00444716 0
0.255122 -0.00392513 0
-0.348944 0.00531662 0
0.272118 -0.0122516 0
0.351165 -0.00431436 0
0.313999 -0.00248237 0
0.335599 0.00623593 0
-0.340431 0.00455858 0
-0.0746393 0.0126366 0
0.342413 0.00177804 0
0.340847 -0.000751571 0
0.15724 0.0207699 0
-0.32487 -0.000307869 0
-0.318681 0.00427523 0
0.350882 0.000453561 0
-0.325745 -0.00246423 0
0.338453 0.00212218 0
0.340839 -0.00200064 0
0.163186 -0.0195247 0
0.326477 0.00298466 0
-0.33435 0.00284313 0
-0.286012 -0.000445776 0
-0.192072 -0.00205426 0
0.0270219 -0.00641168 0
0.0406856 -0.0244627 0
-0.306697 0.00288763 0
0.151799 -0.0216877 0
-0.0357204 0.0339349 0
-0.345242 0.00516218 0
-0.246674 0.0114567 0
-0.337015 0.00379693 0
-0.139634 -0.0112819 0
0.340666 0.00578929 0
-0.239523 0.012861 0
-0.341147 3.52929e-05 0
-54.1739 224.076 0
0.339901 -0.00434515 0
0.338982 -0.000881317 0
-0.277955 0.0118985 0
0.329604 0.00252941 0
0.312675 -0.000792771 0
-485.604 -868.425 0
0.103938 0.0122928 0
-0.337645 0.00319328 0
-0.280698 -0.00198681 0
0.336556 0.0030086 0
3.44178 -7.09005 0
0.318546 0.00422791 0
-0.330468 -0.00493692 0
-0.210952 0.000295968 0
-0.335611 -0.00265472 0
-0.34214 0.00571825 0
0.334053 -0.000789625 0
-0.347428 -0.00110897 0
-0.301217 0.00774284 0
0.262121 0.0105625 0
-0.327413 0.00014146 0
-0.272853 0.0119109 0
-0.302731 0.00694299 0
0.337507 0.00358533 0
0.304329 -0.00576615 0
-0.201547 0.0159914 0
0.347012 -0.00167689 0
-0.337818 -0.00462576 0
-0.314181 -0.00294564 0
-0.341458 0.00115333 0
0.0295654 -0.025934 0
-0.328752 -0.00437009 0
0.332956 0.00362011 0
-0.335022 0.00317173 0
-0.333254 0.00176135 0
-0.0820859 0.012718 0
0.217985 0.0115205 0
-0.108897 0.0305356 0
0.0717592 0.0173258 0
-0.338075 0.00336913 0
-0.0610971 0.00311418 0
-0.338708 -0.000707535 0
-0.340441 0.00469205 0
0.325404 -0.00480432 0
0.286611 0.00795393 0
-0.318466 0.00545984 0
0.302446 0.00415 0
0.30036 0.00121475 0
-0.324838 0.00265963 0
-0.179289 -0.00582186 0
0.237595 -0.0143156 0
-0.325263 0.000804805 0
0.287764 -0.00735925 0
0.131784 -0.00392155 0
-0.334266 -0.000723102 0
0.31261 -0.00042816 0
0.328851 -0.00185816 0
0.333999 -0.00386075 0
0.340252 -0.00121779 0
0.346009 0.000111779 0
0.327977 0.00584454 0
-0.336486 0.0024243 0
0.241971 0.00817872 0
-0.277951 -0.00410545 0
0.158908 0.0224339 0
-0.316793 0.00239055 0
-0.113135 -0.0045631 0
-0.262689 0.0099333 0
0.0959654 -0.0116103 0
-0.343483 0.00337835 0
0.328383 -0.000805333 0
-0.0925093 0.0248135 0
0.117592 0.0131134 0
-0.348098 0.00293965 0
0.33079 0.00166245 0
0.340939 -0.000479659 0
0.32561 0.00730382 0
[...]
      <PointData Scalars="T">
        <DataArray type="Float32" Name="T" format="ascii" NumberOfComponents="1">
313.292
412.911
312.919
312.919
412.911
602.182
312.919
425.49
312.919
412.911
312.919
313.292
412.911
425.49
412.911
313.292
425.49
302.768
302.183
412.911
412.911
313.292
412.911
312.919
312.919
313.292
425.49
312.919
412.911
412.911
412.911
425.49
302.946
312.919
313.292
312.919
302.132
412.911
425.49
425.49
313.292
313.292
425.49
304.083
301.169
412.911
313.292
312.919
312.411
313.905
313.292
425.49
412.911
313.292
412.911
412.911
312.919
313.292
313.292
312.919
313.292
313.292
312.919
312.919
412.911
676
312.919
312.919
313.292
301.706
412.911
313.292
301.169
313.292
313.292
425.49
313.292
412.911
313.292
615.702
425.49
412.911
313.292
609.982
312.919
412.911
312.919
425.49
412.911
425.49
313.292
425.49
312.919
412.911
425.49
412.911
313.292
412.911
412.911
425.49
425.49
425.49
312.919
425.49
312.919
313.292
313.292
313.292
313.292
425.49
412.911
412.911
412.911
313.292
313.292
412.911
412.911
313.292
621.326
425.49
312.919
425.49
312.919
412.911
312.919
312.919
313.292
313.292
425.49
312.919
312.919
312.919
694.74
412.911
312.919
312.919
312.919
412.911
312.919
312.919
312.919
313.292
312.919
425.49
412.911
312.919
412.911
602.22
425.49
412.911
313.292
313.292
425.49
312.919
313.292
313.292
312.919
412.911
425.49
312.919
312.919
425.49
412.911
412.911
412.911
312.919
312.919
313.292
313.292
621.127
312.919
412.911
425.49
313.292
425.49
412.911
412.911
425.49
425.49
425.49
312.919
412.911
412.911
313.292
312.919
312.919
312.919
305.802
312.919
313.292
312.919
312.919
425.49
313.292
412.911
305.3
412.911
412.911
412.911
313.292
412.911
313.292
312.919
425.49
312.919
425.49
313.292
312.919
412.911
425.49
303.588
425.49
312.919
412.911
425.49
412.911
412.911
312.919
425.49
412.911
412.911
412.911
425.49
312.919
313.292
412.911
301.167
312.919
412.911
425.49
425.49
313.292
313.292
412.911
412.911
412.911
312.919
425.49
412.911
312.919
315.44
425.49
412.911
425.49
313.292
313.292
412.911
312.919
313.292
313.292
313.292
412.911
312.919
425.49
412.911
312.919
412.911
313.292
313.292
308.344
301.521
412.911
312.919
312.919
412.911
647.577
412.911
425.49
312.919
312.919
312.919
425.49
313.292
313.292
412.911
412.911
312.919
412.911
313.292
425.49
425.49
425.49
412.911
312.919
412.911
425.49
412.911
412.911
412.911
312.919
412.911
312.919
312.919
313.292
313.292
313.292
313.292
412.911
603.406
633.197
301.521
412.911
312.919
313.292
312.919
313.292
412.911
313.292
593.642
412.911
412.911
313.292
412.911
312.919
312.919
412.911
312.919
312.919
312.919
313.292
412.911
412.911
313.442
312.919
313.292
425.49
412.911
304.844
425.49
313.292
312.919
312.919
313.292
412.911
425.49
425.49
312.919
312.919
412.911
312.919
412.911
412.911
412.911
412.911
425.49
313.292
412.911
677.058
412.911
312.919
312.919
412.911
313.292
312.919
425.49
313.292
412.911
425.49
313.292
312.919
313.292
425.49
608.784
425.49
412.911
312.919
425.49
412.911
313.292
637.196
412.911
412.911
313.292
312.919
412.911
312.919
425.49
425.49
674.62
312.919
425.49
313.292
412.911
601.966
412.911
313.292
412.911
313.292
412.911
412.911
425.49
412.911
312.919
313.292
412.911
313.292
302.167
412.911
425.49
312.919
629.469
312.919
312.919
425.49
312.919
312.919
312.919
312.919
312.245
313.292
412.911
313.292
425.49
313.292
412.911
425.49
412.911
312.919
412.911
312.919
412.911
313.292
412.911
309.576
312.919
313.292
312.919
412.911
412.911
312.919
412.911
313.292
412.911
313.292
658.207
425.49
412.911
412.911
313.292
302.601
412.911
312.919
592.004
425.49
425.49
412.911
425.49
313.292
312.919
425.49
313.292
425.49
425.49
312.919
312.919
425.49
412.911
612.877
425.49
302.257
425.49
307.188
412.911
425.49
312.919
313.292
425.49
425.49
412.911
412.911
313.292
608.636
312.919
312.919
313.292
412.911
412.911
412.911
312.919
313.292
625.064
425.49
425.49
412.911
302.317
313.292
312.919
301.135
412.911
313.292
313.292
301.115
412.911
313.292
312.919
425.49
312.919
412.911
412.911
412.911
425.49
425.49
425.49
425.49
425.49
312.919
312.919
312.919
313.292
312.919
313.292
313.292
425.49
313.292
412.911
312.919
313.292
412.911
313.292
412.911
617.145
412.911
614.962
313.292
312.919
313.292
312.919
312.919
312.919
412.911
313.292
313.292
589.318
313.292
599.719
412.911
425.49
312.919
312.919
412.911
412.911
425.49
425.49
425.49
313.292
313.292
311.79
313.292
425.49
412.911
313.292
412.911
303.429
313.292
425.49
412.911
312.919
412.911
313.292
313.292
425.49
313.292
425.49
312.919
687.872
412.911
302.082
312.919
425.49
425.49
636.175
412.911
412.911
313.292
312.919
312.919
301.706
313.292
425.49
614.822
425.49
425.49
412.911
313.292
312.919
412.911
313.292
425.49
301.189
313.292
307.951
412.911
313.292
425.49
672.428
313.292
312.919
425.49
313.292
412.911
312.919
312.919
313.292
312.919
425.49
425.49
412.911
732.754
313.292
425.49
312.919
425.49
425.49
313.292
312.919
425.49
425.49
412.911
412.911
312.919
312.919
412.911
425.49
425.49
313.292
312.919
412.911
412.911
312.919
312.919
313.292
313.292
412.911
425.49
425.49
425.49
425.49
313.292
412.911
313.292
313.292
425.49
412.911
312.919
312.919
425.49
412.911
312.919
425.49
425.49
412.911
312.919
425.49
412.911
313.292
412.911
412.911
312.919
313.292
412.911
313.292
312.919
603.792
313.292
312.919
412.911
412.911
312.919
312.919
312.919
313.292
313.292
425.49
425.49
412.911
412.911
313.292
412.911
425.49
302.748
313.292
412.911
412.911
412.911
312.919
313.292
313.292
313.292
412.911
312.919
312.919
650.844
412.911
313.292
312.919
313.292
313.292
313.292
412.911
313.292
313.292
312.919
412.911
313.292
412.911
312.919
313.292
312.919
313.292
312.919
412.911
311.79
648.37
313.292
412.911
412.911
412.911
312.919
425.49
313.292
412.911
312.919
313.292
425.49
312.919
640.935
425.49
678.625
412.911
412.911
412.911
312.919
312.919
312.919
312.919
312.919
605.046
313.292
412.911
425.49
312.919
312.919
412.911
302.257
412.911
313.292
412.911
412.911
412.911
425.49
425.49
302.672
412.911
313.292
412.911
425.49
412.911
425.49
425.49
312.919
313.292
312.919
412.911
425.49
412.911
603.406
425.49
412.911
425.49
313.292
412.911
425.49
312.919
312.919
312.919
412.911
412.911
425.49
313.292
425.49
302.179
412.911
425.49
425.49
313.292
312.919
313.292
305.007
312.919
412.911
412.911
312.919
412.911
313.292
412.911
313.292
412.911
425.49
313.292
412.911
304.213
412.911
412.911
312.919
302.082
425.49
313.292
312.919
303.287
313.292
412.911
425.49
425.49
313.292
412.911
304.815
313.292
312.919
312.919
425.49
412.911
306.108
412.911
412.911
312.919
312.919
313.292
312.919
412.911
425.49
313.292
412.911
313.292
313.292
412.911
412.911
313.292
685.087
312.919
312.919
412.911
412.911
312.919
302.635
412.911
425.49
425.49
313.292
303.832
614.822
412.911
412.911
613.832
425.49
312.919
412.911
312.919
412.911
312.919
312.919
618.598
312.919
412.911
313.292
312.919
412.911
425.49
313.292
312.919
313.292
313.292
313.292
313.292
412.911
313.292
312.919
425.49
312.919
313.292
412.911
312.919
312.919
313.292
412.911
412.911
425.49
312.919
425.49
312.919
425.49
412.911
412.911
313.292
425.49
665.108
425.49
312.919
665.086
412.911
312.919
313.292
425.49
425.49
312.919
412.911
312.919
312.919
425.49
313.292
425.49
313.292
312.919
313.292
312.919
313.292
313.292
412.911
313.292
312.919
312.919
412.911
312.919
425.49
412.911
425.49
312.919
313.292
412.911
425.49
412.911
312.919
412.911
412.911
312.919
312.919
313.292
313.292
412.911
412.911
312.919
412.911
313.292
412.911
425.49
304.449
425.49
312.919
412.911
425.49
412.911
412.911
412.911
615.122
425.49
412.911
412.911
313.292
634.415
312.919
312.919
312.919
312.919
313.292
412.911
312.919
412.911
313.292
412.911
313.292
315.772
425.49
313.292
412.911
312.919
313.292
312.919
425.49
312.919
412.911
302.21
425.49
425.49
313.292
425.49
412.911
412.911
425.49
312.919
313.292
313.292
313.292
425.49
312.919
425.49
312.919
305.819
313.292
313.292
313.292
312.919
312.919
425.49
313.292
313.292
425.49
412.911
312.919
412.911
301.062
412.911
425.49
412.911
608.636
425.49
412.911
313.292
425.49
313.292
412.911
312.919
412.911
313.292
412.911
412.911
313.292
313.292
412.911
312.919
313.292
314.778
303.429
425.49
412.911
425.49
693.583
312.919
412.911
309.052
412.911
412.911
312.919
312.919
412.911
313.292
312.919
313.905
312.919
412.911
312.919
313.292
412.911
412.911
412.911
425.49
412.911
312.919
412.911
312.919
425.49
309.226
312.919
313.292
412.911
425.49
425.49
412.911
312.919
313.292
425.49
312.919
301.774
425.49
425.49
312.919
412.911
302.768
312.919
313.292
425.49
412.911
412.911
412.911
313.292
660.611
313.292
611.481
412.911
312.919
313.292
313.292
312.919
313.292
425.49
645.054
425.49
412.911
312.919
313.292
313.292
313.292
313.292
313.292
425.49
412.911
412.911
412.911
425.49
412.911
412.911
309.643
312.919
312.919
312.919
312.919
412.911
312.919
412.911
302.946
425.49
412.911
313.292
412.911
687.872
312.919
684.088
312.919
312.919
312.919
312.919
313.292
313.292
312.919
313.292
425.49
301.189
602.22
313.292
313.292
312.919
425.49
312.919
425.49
313.292
313.292
313.292
313.292
412.911
312.919
412.911
313.292
312.919
312.919
664.857
665.692
677.186
312.919
312.919
425.49
313.292
412.911
313.292
312.919
425.49
412.911
602.654
312.919
313.292
412.911
312.919
412.911
313.292
412.911
412.911
589.233
412.911
312.919
312.919
425.49
412.911
412.911
412.911
312.919
425.49
313.292
412.911
313.292
313.292
412.911
412.911
313.292
412.911
312.919
312.919
312.919
412.911
303.805
312.919
425.49
412.911
312.919
412.911
312.919
412.911
412.911
312.919
425.49
425.49
312.919
312.919
313.292
312.919
313.292
425.49
313.292
313.292
412.911
412.911
312.919
412.911
313.292
301.169
615.27
412.911
313.292
664.857
607.32
301.733
312.919
673.696
412.911
312.919
412.911
628.332
425.49
425.49
412.911
312.919
312.919
412.911
412.911
312.919
425.49
312.919
313.292
313.292
412.911
412.911
312.919
607.32
313.292
412.911
313.292
312.919
602.966
312.919
312.919
425.49
412.911
425.49
425.49
412.911
412.911
412.911
412.911
313.292
312.919
312.919
412.911
312.919
412.911
412.911
312.919
412.911
412.911
313.292
412.911
425.49
312.919
425.49
425.49
313.292
412.911
313.292
313.292
312.919
312.919
412.911
313.292
303.832
412.911
412.911
313.292
412.911
412.911
307.403
312.919
312.919
425.49
312.919
412.911
304.88
312.919
653.637
412.911
412.911
312.919
312.919
412.911
412.911
412.911
425.49
313.292
425.49
312.919
425.49
425.49
313.905
313.292
312.919
425.49
313.292
312.919
313.292
622.446
312.919
645.469
425.49
412.911
412.911
610.149
425.49
425.49
313.292
313.292
425.49
412.911
412.911
312.919
412.911
412.911
412.911
425.49
425.49
312.919
312.919
313.292
412.911
313.292
313.292
312.919
425.49
312.919
308.315
313.292
302.363
313.292
412.911
650.431
651.816
412.911
412.911
312.919
425.49
425.49
313.292
412.911
425.49
412.911
610.432
412.911
412.911
676.49
312.919
425.49
425.49
412.911
425.49
412.911
312.919
425.49
412.911
312.919
312.919
312.919
425.49
425.49
412.911
313.292
412.911
425.49
306.108
412.911
412.911
412.911
313.292
412.911
313.292
313.292
312.919
425.49
312.919
303.997
425.49
653.338
312.919
313.292
425.49
412.911
412.911
312.919
412.911
425.49
412.911
313.292
313.292
312.919
313.292
425.49
412.911
412.911
312.919
313.292
412.911
313.292
313.292
425.49
425.49
425.49
313.292
313.292
313.292
412.911
313.292
651.816
313.292
412.911
412.911
601.966
313.292
312.919
312.919
312.919
425.49
312.919
312.919
621.866
412.911
313.292
313.292
312.496
412.911
312.919
412.911
312.919
313.292
312.919
301.991
425.49
412.911
425.49
313.292
312.919
312.919
312.919
412.911
313.292
412.911
313.292
312.919
313.292
425.49
310.74
412.911
313.292
313.292
312.919
425.49
312.919
312.919
312.919
312.919
313.292
645.054
313.292
312.919
412.911
425.49
425.49
598.177
412.911
412.911
599.719
412.911
312.919
312.919
425.49
313.292
412.911
412.911
412.911
312.919
425.49
425.49
313.292
312.919
313.292
313.292
313.292
601.761
313.292
313.292
312.919
313.292
412.911
304.269
634.638
425.49
425.49
312.919
425.49
412.911
412.911
412.911
412.911
412.911
677.186
412.911
313.292
313.292
312.919
412.911
312.919
412.911
312.919
313.292
412.911
301.497
312.416
313.292
313.292
312.919
612.877
312.919
301.963
412.911
313.292
610.024
313.292
412.911
312.919
312.919
412.911
412.911
425.49
412.911
425.49
412.911
312.919
312.919
312.919
425.49
313.292
412.911
312.919
425.49
313.292
412.911
412.911
425.49
412.911
312.919
312.919
425.49
312.919
313.292
425.49
412.911
312.919
313.292
412.911
313.292
313.292
312.919
312.919
312.919
425.49
412.911
425.49
425.49
313.292
312.919
313.292
302.179
312.919
412.911
660.611
425.49
312.919
301.843
312.919
312.919
412.911
312.919
313.292
313.292
313.292
312.919
313.292
412.911
412.911
412.911
313.292
412.911
412.911
312.919
301.44
312.919
301.002
412.911
313.292
412.911
313.292
313.292
412.911
312.919
425.49
425.49
425.49
312.919
425.49
425.49
412.911
425.49
425.49
412.911
425.49
425.49
622.446
312.919
412.911
412.911
313.292
313.292
312.919
312.919
313.292
412.911
412.911
313.292
425.49
425.49
313.292
412.911
425.49
312.574
313.292
312.919
412.911
412.911
312.919
412.911
412.911
312.919
425.49
302.081
312.416
312.919
312.919
412.911
412.911
412.911
312.919
412.911
412.911
412.911
412.911
425.49
412.911
313.292
425.49
412.911
412.911
313.292
412.911
312.919
412.911
614.648
313.292
412.911
425.49
312.919
312.919
425.49
425.49
658.207
312.919
609.381
412.911
607.32
425.49
412.911
425.49
425.49
313.292
312.919
425.49
412.911
312.919
313.292
312.919
425.49
312.919
312.919
313.292
313.292
412.911
425.49
412.911
412.911
315.772
412.911
313.292
412.911
425.49
425.49
312.919
301.012
425.49
412.911
312.919
621.127
313.292
312.919
313.292
312.919
312.919
313.292
412.911
425.49
425.49
412.911
312.919
312.919
425.49
312.807
613.363
412.911
412.911
425.49
412.911
313.292
312.919
412.911
425.49
313.292
313.292
412.911
312.919
412.911
312.919
312.919
312.919
412.911
313.292
312.919
312.919
313.292
425.49
301.062
425.49
425.49
312.919
312.919
425.49
412.911
313.292
312.919
312.919
425.49
425.49
412.911
313.292
313.292
425.49
313.292
312.919
645.054
312.919
313.292
412.911
425.49
676.49
412.911
412.911
620.305
412.911
412.911
313.292
425.49
301.44
425.49
425.49
313.292
602.493
412.911
412.911
425.49
312.919
412.911
425.49
313.292
412.911
611.798
412.911
313.292
312.919
313.292
312.919
425.49
425.49
412.911
425.49
412.911
412.911
425.49
412.911
412.911
312.919
313.292
313.292
306.082
302.946
425.49
425.49
313.292
313.292
425.49
425.49
412.911
312.919
602.493
412.911
412.911
312.919
412.911
312.919
313.292
302.468
312.919
412.911
313.292
412.911
412.911
425.49
313.292
412.911
313.292
302.601
315.176
312.919
412.911
425.49
309.643
312.919
302.179
313.292
313.292
312.919
425.49
312.919
312.919
412.911
663.508
412.911
312.919
312.919
312.919
412.911
601.761
412.911
313.292
412.911
313.292
589.903
309.161
312.919
312.919
312.919
412.911
313.292
425.49
308.315
312.919
313.292
412.911
425.49
425.49
412.911
425.49
425.49
310.926
412.911
425.49
312.919
312.919
313.292
412.911
412.911
425.49
425.49
313.292
412.911
425.49
425.49
313.292
412.911
653.338
312.919
412.911
313.292
425.49
312.919
412.911
425.49
313.292
412.911
312.919
425.49
412.911
312.919
313.292
425.49
412.911
412.911
312.919
412.911
425.49
312.919
425.49
313.292
313.292
665.914
313.292
312.919
312.919
312.919
304.449
425.49
312.919
313.292
643.15
313.292
412.911
425.49
425.49
412.911
425.49
312.919
425.49
313.292
313.292
313.292
312.919
313.292
312.919
312.919
313.292
425.49
313.292
313.292
425.49
312.919
312.919
313.292
301.44
425.49
312.919
312.919
425.49
313.292
425.49
425.49
312.919
412.911
412.911
312.919
412.911
313.292
304.449
313.292
312.919
312.919
312.919
312.919
312.919
302.13
412.911
425.49
674.628
313.292
309.052
412.911
312.919
312.919
425.49
312.919
313.292
312.919
312.919
312.919
412.911
313.292
312.919
412.911
312.919
425.49
313.292
312.919
313.292
412.911
425.49
313.292
412.911
412.911
312.919
312.919
312.919
412.911
313.292
301.228
651.933
412.911
312.919
312.919
313.292
425.49
425.49
425.49
312.919
313.292
312.919
425.49
412.911
312.919
308.641
313.292
313.292
312.919
412.911
313.292
425.49
313.292
412.911
412.911
313.292
313.292
412.911
592.004
313.292
425.49
653.637
617.574
647.577
412.911
412.911
425.49
312.919
312.919
425.49
313.292
425.49
313.292
312.919
425.49
312.919
312.919
412.911
312.919
602.9
589.318
412.911
412.911
313.292
313.292
312.919
425.49
312.919
425.49
312.919
312.919
412.911
425.49
412.911
307.403
303.849
313.292
313.652
425.49
312.919
412.911
312.919
412.911
312.919
412.911
412.911
313.292
312.919
425.49
312.919
412.911
313.292
412.911
425.49
425.49
425.49
312.919
412.911
425.49
589.233
425.49
425.49
312.919
412.911
312.919
312.919
313.292
312.919
313.292
312.919
412.911
425.49
589.318
313.292
313.292
412.911
312.919
312.919
312.919
312.919
412.911
412.911
313.292
313.292
312.919
312.919
640.935
301.169
425.49
412.911
412.911
312.919
412.911
301.774
425.49
312.919
412.911
425.49
313.292
412.911
313.292
312.919
313.292
661.52
425.49
310.513
312.919
312.919
312.919
313.292
425.49
313.292
313.234
412.911
312.919
313.292
312.919
425.49
313.292
313.292
425.49
602.281
589.233
311.499
312.919
412.911
412.911
687.872
425.49
312.919
312.919
412.911
425.49
312.919
425.49
412.911
412.911
312.919
313.292
425.49
653.465
425.49
312.919
425.49
425.49
313.292
313.292
313.292
313.292
412.911
425.49
425.49
425.49
313.292
312.919
313.292
312.919
412.911
412.911
412.911
412.911
425.49
412.911
412.911
304.844
313.292
312.919
312.919
425.49
425.49
412.911
412.911
412.911
312.919
609.381
313.292
313.292
312.919
425.49
425.49
312.919
313.292
312.919
425.49
313.292
412.911
412.911
312.919
312.919
312.919
312.919
313.292
313.292
313.292
313.292
312.919
312.919
412.911
312.919
412.911
313.292
412.911
412.911
601.966
312.919
312.919
665.309
313.292
412.911
425.49
412.911
425.49
312.919
412.911
618.804
312.919
301.304
425.49
412.911
412.911
620.384
312.919
312.919
312.919
425.49
301.635
307.639
312.919
664.648
425.49
312.919
313.292
313.292
313.292
312.919
313.292
425.49
312.919
301.002
313.292
412.911
412.911
412.911
412.911
412.911
312.919
425.49
659.574
412.911
412.911
412.911
314.139
312.416
312.919
412.911
312.919
312.919
312.919
312.919
313.292
412.911
412.911
425.49
312.919
412.911
312.919
425.49
312.919
611.624
602.654
412.911
313.292
425.49
425.49
313.292
425.49
305.55
412.911
312.416
313.292
313.292
663.508
313.292
412.911
425.49
312.919
412.911
312.919
312.919
313.292
313.292
313.292
412.911
313.292
650.431
425.49
302.324
425.49
425.49
629.469
312.919
412.911
610.873
412.911
312.919
425.49
412.911
313.292
312.919
312.919
425.49
412.911
301.061
412.911
412.911
313.292
425.49
412.911
425.49
412.911
425.49
412.911
412.911
304.632
313.292
412.911
425.49
312.919
312.919
425.49
412.911
313.292
308.641
313.292
412.911
412.911
312.919
425.49
412.911
425.49
302.946
312.919
312.919
314.991
313.292
313.292
313.292
312.919
412.911
425.49
615.919
612.877
425.49
412.911
313.292
412.911
313.292
309.302
412.911
312.919
313.292
425.49
425.49
303.849
412.911
412.911
313.292
412.911
412.911
412.911
412.911
425.49
412.911
425.49
412.911
412.911
313.292
425.49
425.49
412.911
425.49
313.292
307.428
313.292
313.292
412.911
425.49
312.919
412.911
412.911
425.49
312.919
312.919
412.911
425.49
313.292
312.919
425.49
412.911
425.49
425.49
412.911
312.919
412.911
425.49
313.292
313.292
412.911
425.49
312.919
312.919
412.911
425.49
412.911
412.911
665.298
312.919
313.292
313.292
313.292
313.292
412.911
312.919
312.919
313.292
412.911
425.49
412.911
425.49
313.292
312.919
312.919
312.919
412.911
412.911
412.911
312.919
412.911
301.963
425.49
312.919
412.911
313.292
312.919
412.911
661.757
412.911
312.919
412.911
412.911
425.49
312.919
412.911
312.919
412.911
425.49
313.292
312.919
425.49
412.911
312.919
313.292
313.292
313.292
312.919
412.911
313.292
312.919
412.911
412.911
312.919
312.919
412.911
412.911
610.231
312.919
312.919
412.911
312.919
313.292
412.911
313.292
302.082
651.816
425.49
412.911
313.292
412.911