<?xml version="1.0"?>
<VTKFile type="PolyData" version="0.1" byte_order="LittleEndian">
  <PolyData>
    <Piece NumberOfPoints="50000" NumberOfVerts="50000" NumberOfLines="0" NumberOfStrips="0" NumberOfPolys="0">
      <Points>
        <DataArray type="Float32" NumberOfComponents="3" format="ascii">
0.200581 0.00463356 0
-0.189647 0.00181541 0
0.194156 -0.000966151 0
0.202818 -0.000706044 0
-0.164813 0.00352188 0
-0.138356 0.00146673 0
0.0667131 -0.0125425 0
-0.170569 0.000359826 0
0.0589759 -0.00970587 0
-0.0130034 0.00485365 0
0.152201 -0.00594672 0
0.193638 0.00426013 0
-0.110863 0.00390811 0
-0.0783861 -0.0118021 0
-0.207139 0.00151568 0
0.156863 0.00647137 0
-0.0285545 -0.000683449 0
0.201086 0.00117354 0
0.0763867 0.00108098 0
-0.189833 0.00223727 0
-0.199006 0.00313824 0
0.174146 0.00372542 0
-0.196292 0.00165861 0
0.196211 0.000348484 0
0.124902 -0.00599118 0
0.145892 0.00681921 0
-0.194445 -0.00338822 0
0.201494 -0.00134209 0
-0.138958 0.0121274 0
-0.205023 0.00492397 0
-0.154055 0.00642866 0
-0.142982 -0.00786108 0
0.199626 0.00076127 0
0.200792 -0.000173999 0
0.0384615 0.00294037 0
0.204235 -0.000465155 0
0.0621746 0.00111833 0
-0.20342 0.00164559 0
-0.190001 -0.00223371 0
-0.211283 -0.000866281 0
0.147051 0.00693888 0
0.155546 0.00344274 0
-0.194299 -0.000798068 0
0.198364 0.000714412 0
0.205339 0.00101419 0
-0.199971 0.00475787 0
0.195506 0.00284749 0
0.10016 -0.00710371 0
0.192904 0.000529803 0
0.197519 0.000449994 0
0.0827156 0.0111221 0
-0.196149 -0.000132991 0
-0.136039 0.00512181 0
0.194999 0.00183503 0
-0.19303 0.00162992 0
-0.205687 0.00170749 0
0.200775 -0.000267085 0
0.0810505 0.00619159 0
0.149976 0.00416302 0
0.207241 -0.00207592 0
0.169058 0.0027684 0
0.202954 0.00171327 0
0.0448342 -0.0156472 0
0.207137 -0.000508067 0
-0.0660976 0.00885719 0
-0.192498 0.00113749 0
0.196898 -7.51317e-05 0
0.202153 5.55285e-05 0
0.20904 0.00240437 0
0.144816 0.00087431 0
-0.19464 0.00206691 0
0.196737 0.00227061 0
0.107807 0.00103376 0
0.109755 0.0038126 0
0.0937106 0.00297271 0
-0.197661 -0.000827391 0
0.171597 0.00662879 0
-0.187467 0.00260589 0
0.151483 0.0038289 0
-0.205224 0.0012615 0
-0.102823 -0.016339 0
-0.201124 0.00264104 0
0.186056 0.00296338 0
-0.195582 0.000766885 0
0.206986 -0.00196297 0
-0.195932 0.00211038 0
0.207298 -0.00191862 0
-0.0878071 -0.00380219 0
-0.0848794 0.0118612 0
-0.197826 -0.00311714 0
0.195027 0.0037463 0
-0.193476 0.000133122 0
0.195757 -0.000487511 0
-0.132892 0.0101656 0
-0.0196455 -0.0103704 0
-0.173847 0.00307452 0
0.195636 0.00476995 0
-0.199336 0.00207588 0
-0.210322 0.00410249 0
-0.208417 -5.01735e-05 0
-0.174548 -0.00329647 0
-0.194225 -0.00236614 0
0.208569 0.000106144 0
-0.0835713 -0.00976979 0
0.210043 0.000170082 0
0.171712 0.00671538 0
0.126947 0.00379353 0
0.0103767 0.00432513 0
0.192923 0.00267506 0
-0.196859 -0.00186284 0
-0.147932 0.0101943 0
-0.199585 0.00202885 0
-0.170071 0.00568045 0
141.528 204.727 0
0.131689 0.0040889 0
-0.196639 0.00223102 0
-0.203949 0.00264806 0
3.625 4.95874 0
-0.198229 0.00126697 0
-0.00961027 -0.00381899 0
0.201571 -0.000258487 0
-0.191273 -0.00144457 0
0.136119 -0.00127052 0
-0.18257 0.00412823 0
0.197752 0.00010053 0
0.192261 -2.52863e-05 0
0.0632041 0.0122548 0
0.202978 0.00263058 0
-0.176872 -0.00295447 0
0.153275 -7.64554e-06 0
0.204335 -0.00112221 0
0.202642 0.000239902 0
-0.209366 0.000826186 0
-0.17458 0.00245701 0
0.207652 -0.00044006 0
0.197392 -5.80225e-05 0
0.190214 -0.000942131 0
-0.031133 0.00199957 0
0.15888 -0.00655042 0
0.154647 -0.00543534 0
0.158814 -0.00666509 0
0.188438 0.00520808 0
0.203968 -0.00122557 0
-0.0467425 -0.00644578 0
-0.203061 0.00377469 0
0.135168 -0.0106599 0
-0.129643 0.0103481 0
-0.20027 0.00143312 0
-0.142673 -0.00935875 0
-0.200929 0.00226842 0
0.153773 0.00410585 0
0.196086 0.00158587 0
-0.0606239 -0.00538276 0
0.159491 -0.00464708 0
0.158571 0.00458809 0
0.194521 0.002396 0
0.133059 -0.00434443 0
-0.196959 0.00181671 0
-0.084645 -0.00250916 0
0.203411 0.00026597 0
0.135909 -0.000368472 0
-0.178788 -0.00105046 0
-0.193514 0.00168514 0
-0.201231 0.00171554 0
-0.05168 0.00537928 0
0.15658 -0.0026837 0
0.176971 -0.0023226 0
0.179174 0.00226662 0
0.150232 0.00439749 0
-0.082351 0.000726806 0
0.209436 -0.0019763 0
-0.19287 0.0019755 0
-0.0454368 -0.00247538 0
0.202568 0.00261594 0
-0.036428 -0.00126607 0
-0.155394 0.0082107 0
-0.193395 0.0016657 0
-0.117223 -0.0050167 0
-0.196134 -0.00073305 0
-0.197028 -0.00285129 0
0.194111 0.000401289 0
-0.199234 0.00360302 0
-0.196188 0.0031073 0
0.200484 0.00310741 0
0.19546 -1.08558e-05 0
0.15092 -0.00811852 0
0.209883 -0.0012498 0
0.207565 0.000658465 0
0.201399 -0.00138503 0
0.0226755 0.0149937 0
0.204804 -0.0013696 0
0.165732 -0.00407915 0
-0.132424 -0.00863749 0
0.184405 0.00361983 0
-0.18209 0.00358487 0
0.194114 0.00131274 0
-0.162115 0.00624249 0
-0.172918 0.00305652 0
-0.194091 0.00233921 0
0.19663 0.00291034 0
-0.129348 0.00980761 0
0.206979 0.00178565 0
0.17958 -0.002272 0
-0.0404311 -0.00307453 0
0.209753 -0.00202676 0
-0.191513 -0.00356858 0
0.0273208 0.023912 0
0.0833135 -0.00285903 0
-0.173061 0.00573231 0
-0.121726 -0.00460359 0
0.192197 0.000732795 0
-0.0846909 -0.00994095 0
0.18098 -0.00137927 0
-0.167242 0.00588879 0
-0.114364 -0.00739399 0
-0.201161 0.00342513 0
-0.198475 0.00423404 0
0.199213 0.000300847 0
-0.20381 -0.000278343 0
-0.0236108 0.0108172 0
-0.156647 0.00624061 0
-0.203517 0.00221461 0
-0.188709 -0.00274735 0
0.20801 -0.0010215 0
0.0736009 0.0126358 0
-0.193525 0.00192103 0
0.208976 0.0010001 0
0.200693 2.95673e-05 0
-0.171752 0.00526473 0
-0.202904 0.000101211 0
-0.199699 -0.00151173 0
0.195332 0.00256509 0
0.10157 0.0121128 0
-0.0304416 0.00785158 0
-0.206554 0.00260767 0
-0.177658 0.00334336 0
0.153246 -0.00825175 0
-0.156223 -0.00180226 0
-0.197301 0.00206644 0
0.121622 -0.0010205 0
0.205168 0.000417405 0
-0.181334 -0.00298755 0
-0.199679 0.00207894 0
-0.115008 -0.00652446 0
0.100309 0.00381897 0
0.17909 0.00250526 0
-0.188285 0.0039092 0
0.200843 2.96934e-05 0
0.206548 0.00175452 0
0.118463 0.00664919 0
0.123645 0.00259996 0
-0.187599 0.00292605 0
0.193902 -0.00102546 0
-0.0884328 -0.00423615 0
-0.181403 0.00445482 0
0.194278 0.000296842 0
-0.17582 0.00435522 0
0.171704 0.00488774 0
0.0745077 0.012012 0
0.107707 0.000582563 0
0.206519 0.000892821 0
-0.187531 0.00284028 0
0.037974 -0.00365775 0
0.0191898 -0.00648743 0
-0.133615 0.00211484 0
-0.19719 0.000925336 0
-0.194055 0.00185956 0
-0.192872 -0.000302522 0
0.199073 -6.90258e-05 0
0.197422 3.52232e-05 0
0.203394 -3.68896e-05 0
-0.19901 -0.00103567 0
0.13052 0.0019552 0
0.0109316 0.0064974 0
-0.20769 0.00290211 0
-0.201889 0.00154307 0
0.193326 0.000242461 0
-0.192969 0.00190201 0
0.191706 0.00366057 0
-0.195903 -0.000326606 0
-0.189735 0.000335769 0
-0.0873971 -0.010919 0
-0.198963 0.0016244 0
0.188683 -0.000654641 0
-0.168813 0.00573436 0
-0.19022 -0.00118494 0
-0.075167 0.0102664 0
-0.198447 0.0020202 0
-0.201459 0.00229159 0
0.170222 -0.00110394 0
-0.0704251 0.00378224 0
0.198776 -2.92062e-05 0
0.203116 -0.00100512 0
0.12937 0.00731207 0
0.206145 0.0020794 0
0.196003 0.00352831 0
0.205319 0.00252747 0
-0.135848 0.0119532 0
-0.186341 0.00142096 0
-0.207019 0.000870229 0
0.210638 0.000887914 0
-0.0276343 0.00407859 0
0.198071 -0.000439062 0
0.193433 0.00207827 0
0.203916 6.37285e-05 0
0.0351742 0.00645924 0
-0.10402 0.0127876 0
0.171609 0.00309333 0
-0.0235512 0.000618204 0
-0.0970001 0.00504668 0
-0.162645 0.0061355 0
0.198841 0.00375505 0
-0.143901 0.00761515 0
0.183784 -0.00223023 0
0.151532 -0.00192186 0
-0.206493 0.00351655 0
0.161433 -0.00685123 0
0.208571 -0.00213999 0
0.186469 -0.00106451 0
0.199472 0.00412286 0
-0.201444 0.00306794 0
-0.0437779 0.00786538 0
0.20325 0.0014615 0
0.202421 -3.16979e-05 0
0.0933173 0.0126764 0
-0.192325 0.000177018 0
-0.188459 0.00290906 0
0.208327 0.000681799 0
-0.192529 -0.00108289 0
0.201149 0.00168062 0
0.202471 -0.000770353 0
0.0968684 -0.011145 0
0.193776 0.00217425 0
-0.197807 0.00205282 0
-0.16899 0.000116051 0
-0.113356 -0.000833107 0
0.0163534 -0.00339089 0
0.024381 -0.0140144 0
-0.181413 0.0020848 0
0.0901136 -0.0124205 0
-0.0206644 0.0203752 0
-0.204341 0.00342311 0
-0.145662 0.00716702 0
-0.199404 0.00261736 0
-0.0821867 -0.00628584 0
0.202476 0.00385821 0
-0.141388 0.00799734 0
-0.201974 0.00037903 0
-30.0999 124.502 0
0.201956 -0.00215475 0
0.201316 -0.000108025 0
-0.164158 0.00742678 0
0.195896 0.00192023 0
0.185735 -6.12083e-05 0
-273.457 -489.034 0
0.061847 0.00766554 0
-0.19986 0.00225524 0
-0.165826 -0.000795953 0
0.199779 0.00219327 0
1.96272 -4.04188 0
0.189036 0.00290839 0
-0.195672 -0.00257732 0
-0.124535 0.00055788 0
-0.198719 -0.00122012 0
-0.202503 0.00375254 0
0.198345 -5.89791e-05 0
-0.205412 -0.000283935 0
-0.178021 0.00496537 0
0.155497 0.00665401 0
-0.193615 0.000454437 0
-0.161142 0.00743466 0
-0.178943 0.00449174 0
0.200309 0.00253123 0
0.180658 -0.00301219 0
-0.118854 0.00984664 0
0.206096 -0.000579516 0
-0.200007 -0.00238713 0
-0.18564 -0.00136479 0
-0.202123 0.00104584 0
0.0178262 -0.0148776 0
-0.194647 -0.00223659 0
0.197871 0.00256729 0
-0.198143 0.00225254 0
-0.19726 0.00140656 0
-0.0481741 0.00791062 0
0.129362 0.00721688 0
-0.0639333 0.0184239 0
0.0427789 0.0106364 0
-0.200077 0.00236226 0
-0.035759 0.0022336 0
-0.200513 -5.94717e-05 0
-0.201474 0.00314605 0
0.193277 -0.00242871 0
0.170016 0.00510925 0
-0.188281 0.00361154 0
0.179807 0.00288374 0
0.178316 0.0011238 0
-0.192169 0.00194814 0
-0.105736 -0.00306121 0
0.140975 -0.00807213 0
-0.192558 0.000836635 0
0.17081 -0.00395609 0
0.0784679 -0.00192458 0
-0.197625 -5.67921e-05 0
0.18559 0.000152172 0
0.195219 -0.00069422 0
0.198457 -0.00186978 0
0.202111 -0.000307812 0
0.205449 0.000479683 0
0.194968 0.00389204 0
-0.199107 0.00180466 0
0.143586 0.0052396 0
-0.164181 -0.00205577 0
0.0942428 0.0136503 0
-0.18742 0.00178704 0
-0.0665587 -0.00231228 0
-0.155162 0.00626383 0
0.0571988 -0.00647456 0
-0.203224 0.00237063 0
0.195065 -6.49732e-05 0
-0.0542823 0.0150504 0
0.0699122 0.00815578 0
-0.205939 0.00210972 0
0.196582 0.00140504 0
[...]
      <PointData Scalars="T">
        <DataArray type="Float32" Name="T" format="ascii" NumberOfComponents="1">
310.267
382.971
310.659
310.659
368.834
418.219
310.659
441.454
310.659
368.834
310.659
310.267
368.834
377.604
422.571
310.267
377.604
300.921
300.8
368.834
368.834
310.267
404.365
301.942
310.659
310.267
377.604
310.659
368.834
368.834
368.834
377.604
300.686
310.659
310.267
310.659
300.869
407.769
377.604
377.604
310.267
310.267
377.604
300.77
300.592
368.834
310.267
310.659
301.293
301.534
310.267
377.604
368.834
304.942
413.511
399.508
310.659
310.267
310.267
310.659
310.267
303.568
310.659
310.659
368.834
444.142
310.659
302.836
310.267
300.632
368.834
310.267
300.603
310.267
310.267
377.604
310.267
368.834
310.267
426.114
377.604
368.834
310.267
421.023
310.659
368.834
310.659
377.604
368.834
377.604
310.267
440.349
310.659
368.834
377.604
368.834
310.267
368.834
368.834
377.604
377.604
377.604
302.741
377.604
302.628
310.267
310.267
310.267
310.267
377.604
368.834
368.834
368.834
310.267
310.267
368.834
368.834
310.267
426.114
377.604
310.659
377.604
310.659
368.834
302.741
310.659
310.267
310.267
377.604
310.659
310.659
302.145
438.807
368.834
310.659
310.659
310.659
368.834
310.659
310.659
310.659
310.267
310.659
377.604
368.834
310.659
368.834
418.491
377.604
368.834
310.267
302.789
377.604
310.659
310.267
310.267
310.659
382.971
377.604
301.999
310.659
377.604
400.494
398.029
368.834
310.659
310.659
310.267
310.267
421.956
310.659
368.834
377.604
310.267
377.604
368.834
402.813
377.604
377.604
377.604
301.807
368.834
368.834
310.267
310.659
310.659
310.659
300.885
310.659
310.267
310.659
310.659
377.604
310.267
368.834
301.012
368.834
368.834
368.834
310.267
368.834
304.202
310.659
377.604
310.659
377.604
310.267
310.659
368.834
377.604
300.734
377.604
310.659
368.834
377.604
368.834
368.834
301.868
377.604
368.834
368.834
368.834
377.604
310.659
310.267
368.834
300.603
302.804
368.834
443.961
377.604
310.267
310.267
368.834
368.834
368.834
310.659
377.604
368.834
310.659
301.773
377.604
368.834
377.604
310.267
310.267
368.834
302.804
303.948
310.267
310.267
368.834
310.659
377.604
368.834
301.887
368.834
310.267
310.267
301.012
300.599
368.834
310.659
310.659
368.834
432.667
378.611
377.604
310.659
302.812
310.659
377.604
310.267
310.267
368.834
423.911
302.075
374.689
310.267
377.604
439.614
377.604
413.511
310.659
368.834
377.604
368.834
368.834
368.834
310.659
368.834
310.659
310.659
310.267
310.267
310.267
310.267
368.834
418.822
435.337
300.62
368.834
310.659
310.267
302.842
310.267
368.834
310.267
416.498
368.834
368.834
310.267
368.834
310.659
310.659
368.834
310.659
310.659
310.659
310.267
368.834
368.834
301.597
310.659
310.267
441.844
368.834
300.813
377.604
303.541
310.659
310.659
310.267
368.834
443.982
377.604
310.659
310.659
368.834
310.659
368.834
368.834
368.834
368.834
377.604
310.267
368.834
444.004
368.834
310.659
310.659
368.834
310.267
310.659
377.604
310.267
368.834
377.604
310.267
310.659
310.267
377.604
424.323
377.604
368.834
310.659
377.604
368.834
310.267
434.838
368.834
368.834
310.267
310.659
368.834
310.659
377.604
377.604
442.326
310.659
377.604
310.267
368.834
419.773
368.834
310.267
368.834
310.267
368.834
368.834
377.604
368.834
310.659
310.267
368.834
310.267
300.863
368.834
377.604
310.659
439.032
310.659
310.659
377.604
302.677
310.659
310.659
310.659
301.367
310.267
384.348
310.267
377.604
310.267
389.462
377.604
368.834
310.659
368.834
310.659
368.834
310.267
368.834
301.237
302.674
310.267
310.659
368.834
400.494
310.659
368.834
310.267
398.029
310.267
443.744
377.604
368.834
368.834
310.267
300.913
368.834
310.659
416.201
448.217
377.604
368.834
377.604
310.267
310.659
377.604
303.194
377.604
377.604
310.659
310.659
377.604
368.834
421.956
377.604
300.65
377.604
300.954
368.834
377.604
302.656
310.267
377.604
377.604
368.834
368.834
310.267
421.125
310.659
310.659
310.267
368.834
368.834
368.834
301.953
310.267
426.419
377.604
377.604
400.08
300.856
310.267
302.842
300.555
368.834
310.267
310.267
300.559
376.487
310.267
310.659
451.247
310.659
375.258
368.834
368.834
377.604
449.955
377.604
377.604
377.604
310.659
310.659
310.659
310.267
310.659
310.267
310.267
377.604
310.267
391.842
310.659
310.267
368.834
310.267
368.834
426.114
368.834
426.419
310.267
310.659
310.267
310.659
310.659
310.659
368.834
310.267
310.267
417.698
310.267
418.203
368.834
377.604
310.659
310.659
368.834
368.834
377.604
377.604
377.604
310.267
310.267
301.516
310.267
377.604
368.834
310.267
368.834
300.72
310.267
377.604
368.834
310.659
368.834
310.267
310.267
377.604
310.267
377.604
310.659
439.865
368.834
300.869
310.659
377.604
377.604
435.221
381.929
368.834
310.267
310.659
310.659
300.62
310.267
377.604
423.801
443.064
377.604
368.834
310.267
310.659
368.834
310.267
377.604
300.559
310.267
300.982
407.769
310.267
377.604
442.294
310.267
310.659
377.604
310.267
368.834
310.659
310.659
310.267
302.246
377.604
377.604
368.834
445.993
310.267
377.604
310.659
377.604
377.604
310.267
302.075
377.604
377.604
368.834
368.834
310.659
310.659
368.834
437.916
377.604
310.267
310.659
368.834
368.834
310.659
310.659
310.267
310.267
402.813
377.604
377.604
377.604
377.604
310.267
368.834
310.267
304.202
377.604
368.834
302.027
310.659
377.604
368.834
310.659
377.604
377.604
377.483
310.659
377.604
417.132
310.267
368.834
393.606
310.659
310.267
368.834
310.267
310.659
418.219
310.267
302.838
368.834
368.834
310.659
302.674
302.075
310.267
310.267
442.418
441.844
368.834
368.834
310.267
368.834
377.604
300.672
310.267
368.834
417.884
368.834
310.659
310.267
310.267
310.267
368.834
302.716
310.659
429.51
368.834
304.202
310.659
310.267
310.267
303.203
368.834
310.267
305.605
310.659
368.834
310.267
368.834
310.659
310.267
310.659
310.267
310.659
368.834
301.437
433.056
310.267
368.834
368.834
368.834
310.659
377.604
310.267
368.834
302.075
310.267
377.604
310.659
435.221
377.604
442.402
417.884
368.834
368.834
310.659
310.659
310.659
302.246
310.659
422.08
310.267
368.834
441.129
310.659
310.659
380.799
300.651
368.834
310.267
368.834
368.834
368.834
377.604
377.604
300.686
368.834
310.267
368.834
377.604
368.834
377.604
377.604
301.887
310.267
310.659
368.834
377.604
368.834
418.491
377.604
368.834
377.604
310.267
368.834
377.604
310.659
310.659
302.836
423.911
368.834
377.604
310.267
377.604
300.87
368.834
377.604
377.604
310.267
302.145
310.267
301.012
310.659
368.834
368.834
310.659
368.834
310.267
423.911
310.267
400.494
377.604
305.38
368.834
301.009
368.834
368.834
310.659
300.869
377.604
310.267
310.659
300.974
310.267
368.834
377.604
441.129
310.267
368.834
301.009
310.267
310.659
310.659
444.33
368.834
301.023
368.834
368.834
310.659
302.075
310.267
310.659
368.834
377.604
310.267
368.834
302.789
310.267
368.834
368.834
304.49
433.111
310.659
302.833
368.834
368.834
310.659
300.672
368.834
377.604
377.604
310.267
301.016
424.109
368.834
397.809
422.08
377.604
310.659
368.834
310.659
422.571
310.659
302.442
422.449
310.659
417.884
310.267
310.659
368.834
377.604
304.626
310.659
310.267
310.267
310.267
310.267
368.834
310.267
310.659
440.003
310.659
310.267
368.834
301.927
310.659
310.267
368.834
368.834
377.604
310.659
377.604
310.659
377.604
407.769
368.834
310.267
377.604
440.129
377.604
310.659
440.573
368.834
310.659
303.452
377.604
377.604
310.659
368.834
310.659
310.659
377.604
310.267
377.604
302.402
310.659
310.267
310.659
310.267
310.267
368.834
302.7
310.659
310.659
368.834
310.659
377.604
368.834
377.604
310.659
310.267
384.348
377.604
368.834
310.659
368.834
368.834
301.773
302.812
310.267
310.267
368.834
417.884
310.659
368.834
310.267
368.834
377.604
301.018
377.604
310.659
368.834
377.604
368.834
368.834
368.834
423.801
377.604
368.834
368.834
310.267
431.849
310.659
310.659
310.659
310.659
310.267
368.834
301.999
368.834
310.267
368.834
310.267
301.9
377.604
310.267
368.834
310.659
310.267
310.659
377.604
310.659
368.834
300.65
377.604
377.604
310.267
377.604
368.834
368.834
377.604
310.659
310.267
310.267
310.267
377.604
310.659
377.604
310.659
300.893
310.267
310.267
305.535
310.659
310.659
377.604
310.267
305.611
377.604
368.834
310.659
368.834
300.592
368.834
377.604
368.834
421.125
377.604
368.834
303.568
377.604
310.267
423.71
310.659
368.834
310.267
368.834
368.834
310.267
310.267
368.834
310.659
310.267
301.59
300.734
377.604
368.834
438.002
441.225
310.659
368.834
301.093
368.834
368.834
310.659
310.659
368.834
310.267
310.659
301.482
310.659
368.834
301.807
310.267
368.834
368.834
368.834
377.604
368.834
310.659
368.834
310.659
377.604
301.181
310.659
310.267
368.834
377.604
377.604
368.834
310.659
310.267
377.604
310.659
300.847
377.604
377.604
310.659
368.834
300.937
310.659
310.267
377.604
368.834
368.834
368.834
310.267
444.436
310.267
419.033
368.834
302.833
310.267
310.267
310.659
310.267
439.614
432.868
377.604
368.834
302.836
303.784
310.267
310.267
310.267
310.267
377.604
368.834
368.834
368.834
439.905
368.834
376.487
301.093
310.659
310.659
302.838
310.659
374.689
310.659
368.834
300.705
377.604
368.834
310.267
413.511
434.575
310.659
444.101
310.659
310.659
310.659
310.659
310.267
310.267
310.659
310.267
377.604
300.641
418.491
310.267
310.267
301.773
377.604
310.659
377.604
310.267
310.267
310.267
310.267
368.834
310.659
368.834
310.267
301.807
310.659
440.466
438.802
439.032
310.659
310.659
377.604
310.267
397.809
303.882
310.659
377.604
368.834
435.53
310.659
310.267
368.834
310.659
368.834
304.108
368.834
368.834
420.332
368.834
310.659
310.659
377.604
368.834
368.834
368.834
310.659
377.604
310.267
368.834
310.267
304.942
368.834
389.462
310.267
368.834
302.351
310.659
310.659
368.834
300.751
310.659
377.604
368.834
310.659
368.834
302.833
368.834
368.834
302.795
377.604
377.604
301.953
301.862
310.267
310.659
310.267
377.604
303.144
310.267
368.834
368.834
310.659
368.834
310.267
300.559
423.365
382.971
310.267
440.466
421.023
300.8
310.659
442.658
422.571
310.659
368.834
431.849
377.604
377.604
368.834
310.659
310.659
368.834
368.834
310.659
377.604
310.659
310.267
310.267
368.834
368.834
310.659
421.023
310.267
368.834
310.267
310.659
418.822
310.659
310.659
377.604
368.834
377.604
377.604
368.834
368.834
368.834
368.834
310.267
301.887
310.659
368.834
310.659
368.834
379.843
301.999
368.834
368.834
310.267
378.611
377.604
310.659
377.604
377.604
310.267
368.834
310.267
302.587
310.659
310.659
368.834
304.626
300.997
368.834
368.834
310.267
368.834
368.834
300.954
310.659
302.656
377.604
310.659
368.834
301.012
310.659
434.212
368.834
375.258
310.659
301.868
368.834
368.834
368.834
377.604
302.402
377.604
310.659
377.604
377.604
301.59
310.267
310.659
377.604
310.267
310.659
310.267
422.172
310.659
435.53
440.003
368.834
384.348
424.275
377.604
377.604
310.267
310.267
377.604
368.834
368.834
310.659
368.834
368.834
368.834
377.604
377.604
310.659
310.659
310.267
368.834
310.267
310.267
310.659
377.604
310.659
301.141
310.267
300.658
310.267
368.834
428.385
437.23
368.834
421.235
310.659
377.604
377.604
310.267
368.834
377.604
368.834
419.175
404.365
368.834
443.471
310.659
377.604
377.604
368.834
377.604
368.834
310.659
377.604
368.834
310.659
310.659
310.659
377.604
377.604
368.834
310.267
368.834
377.604
301.062
368.834
368.834
368.834
310.267
368.834
310.267
310.267
310.659
377.604
310.659
301.009
377.604
441.644
310.659
310.267
377.604
368.834
368.834
310.659
368.834
377.604
368.834
310.267
310.267
310.659
310.267
377.604
368.834
368.834
310.659
310.267
368.834
310.267
310.267
438.522
377.604
377.604
310.267
310.267
310.267
400.494
310.267
437.23
310.267
368.834
368.834
419.033
305.38
302.145
310.659
310.659
377.604
310.659
310.659
422.172
379.843
310.267
310.267
301.367
368.834
310.659
368.834
310.659
310.267
310.659
300.8
442.418
368.834
441.454
310.267
310.659
310.659
302.656
368.834
310.267
368.834
303.144
301.922
310.267
377.604
301.153
379.843
310.267
310.267
310.659
440.528
310.659
310.659
310.659
310.659
310.267
431.983
310.267
310.659
368.834
377.604
441.454
417.467
368.834
368.834
418.203
368.834
310.659
302.795
377.604
310.267
368.834
423.71
404.365
310.659
377.604
377.604
304.108
310.659
310.267
310.267
310.267
419.773
304.045
310.267
310.659
310.267
368.834
300.797
428.113
377.604
377.604
310.659
377.604
368.834
368.834
368.834
368.834
368.834
438.807
368.834
303.526
310.267
310.659
386.874
310.659
398.029
310.659
310.267
368.834
300.758
301.367
310.267
310.267
310.659
422.348
310.659
300.635
368.834
310.267
419.512
310.267
368.834
310.659
301.868
368.834
368.834
377.604
368.834
377.604
368.834
310.659
310.659
310.659
377.604
310.267
368.834
302.812
377.604
310.267
374.689
368.834
377.604
368.834
301.869
310.659
377.604
310.659
310.267
377.604
368.834
301.669
310.267
368.834
310.267
310.267
310.659
302.027
310.659
377.604
368.834
377.604
377.604
310.267
310.659
310.267
300.856
310.659
368.834
441.225
441.454
310.659
300.623
302.741
310.659
368.834
310.659
310.267
310.267
310.267
301.953
310.267
368.834
368.834
368.834
310.267
389.462
368.834
302.575
300.599
301.862
300.559
368.834
310.267
368.834
310.267
310.267
368.834
310.659
377.604
377.604
377.604
302.833
377.604
377.604
421.29
377.604
445.132
368.834
377.604
377.604
422.172
310.659
368.834
368.834
310.267
310.267
310.659
310.659
310.267
386.874
368.834
310.267
377.604
377.604
310.267
411.187
377.604
301.516
310.267
310.659
368.834
368.834
310.659
368.834
368.834
310.659
453.574
300.847
301.314
310.659
310.659
368.834
368.834
368.834
310.659
384.348
368.834
368.834
368.834
377.604
368.834
310.267
377.604
368.834
379.843
310.267
368.834
310.659
368.834
421.956
310.267
368.834
377.604
310.659
302.795
377.604
438.817
439.865
301.927
421.023
368.834
422.884
377.604
368.834
377.604
377.604
310.267
310.659
377.604
368.834
310.659
310.267
310.659
377.604
310.659
310.659
310.267
310.267
368.834
377.604
368.834
386.874
301.832
417.884
310.267
404.365
377.604
377.604
310.659
300.532
377.604
368.834
310.659
422.449
310.267
310.659
310.267
310.659
310.659
310.267
413.511
377.604
377.604
368.834
310.659
301.999
377.604
301.482
424.323
368.834
368.834
377.604
368.834
304.108
310.659
382.971
377.604
302.912
310.267
368.834
310.659
368.834
302.669
310.659
302.842
368.834
310.267
310.659
310.659
310.267
377.604
300.532
377.604
377.604
310.659
302.8
377.604
422.978
310.267
310.659
310.659
377.604
377.604
368.834
303.948
305.611
377.604
310.267
310.659
436.382
310.659
310.267
368.834
377.604
443.471
368.834
368.834
427.732
368.834
368.834
303.665
377.604
300.592
377.604
377.604
310.267
419.033
368.834
368.834
377.604
310.659
368.834
377.604
303.228
368.834
426.419
368.834
310.267
302.833
310.267
310.659
377.604
377.604
374.689
445.132
413.511
368.834
377.604
368.834
402.813
310.659
310.267
310.267
301.039
300.686
377.604
438.002
310.267
310.267
377.604
377.604
379.843
310.659
419.033
368.834
368.834
310.659
368.834
310.659
310.267
300.672
310.659
368.834
310.267
368.834
368.834
377.604
310.267
368.834
310.267
300.913
301.744
301.868
368.834
377.604
301.093
301.922
300.87
310.267
310.267
310.659
377.604
310.659
310.659
368.834
440.812
368.834
310.659
302.674
310.659
404.365
419.773
368.834
310.267
368.834
310.267
416.498
301.169
310.659
310.659
302.741
368.834
310.267
377.604
301.099
301.915
310.267
368.834
377.604
377.604
368.834
377.604
377.604
301.437
368.834
440.003
310.659
310.659
302.912
368.834
368.834
377.604
377.604
310.267
368.834
442.717
377.604
310.267
368.834
441.567
310.659
368.834
310.267
377.604
310.659
400.494
377.604
310.267
368.834
310.659
377.604
368.834
310.659
310.267
377.604
368.834
368.834
310.659
368.834
377.604
310.659
441.831
310.267
310.267
437.23
310.267
310.659
310.659
310.659
301.023
377.604
310.659
310.267
433.111
310.267
368.834
377.604
377.604
368.834
377.604
310.659
377.604
310.267
310.267
310.267
310.659
310.267
310.659
310.659
310.267
377.604
303.452
310.267
377.604
310.659
310.659
304.942
300.62
377.604
310.659
310.659
377.604
310.267
377.604
377.604
310.659
368.834
368.834
310.659
368.834
303.194
301.018
310.267
302.838
310.659
310.659
310.659
302.075
300.65
368.834
377.604
442.294
305.38
301.06
368.834
310.659
310.659
440.003
310.659
310.267
310.659
310.659
310.659
375.897
310.267
310.659
368.834
310.659
377.604
310.267
302.842
310.267
368.834
377.604
310.267
368.834
368.834
310.659
310.659
310.659
368.834
310.267
300.686
434.596
380.799
310.659
310.659
310.267
377.604
377.604
377.604
310.659
310.267
310.659
441.844
368.834
310.659
301.041
310.267
310.267
310.659
368.834
310.267
377.604
310.267
368.834
368.834
303.194
310.267
368.834
416.201
310.267
377.604
432.572
426.723
435.53
368.834
378.611
377.604
310.659
310.659
445.379
303.784
443.064
310.267
310.659
377.604
302.795
310.659
368.834
310.659
425.763
417.698
368.834
368.834
310.267
310.267
310.659
377.604
310.659
377.604
310.659
310.659
400.494
377.604
368.834
300.954
301.009
310.267
301.482
377.604
310.659
368.834
310.659
368.834
302.838
368.834
368.834
310.267
310.659
377.604
301.887
368.834
305.318
368.834
377.604
377.604
377.604
310.659
368.834
377.604
420.332
377.604
377.604
310.659
368.834
310.659
310.659
310.267
310.659
310.267
310.659
368.834
377.604
417.467
310.267
310.267
377.483
310.659
301.942
302.804
310.659
368.834
368.834
310.267
310.267
310.659
302.075
439.032
300.592
377.604
404.365
368.834
310.659
368.834
300.8
377.604
310.659
368.834
377.604
310.267
368.834
310.267
310.659
310.267
441.66
442.661
301.237
310.659
310.659
310.659
310.267
442.94
310.267
301.42
368.834
302.669
310.267
310.659
377.604
310.267
310.267
377.604
418.822
420.332
301.224
310.659
417.132
368.834
441.587
377.604
310.659
310.659
368.834
377.604
302.836
377.604
368.834
368.834
310.659
310.267
377.604
438.807
377.604
310.659
377.604
377.604
304.045
310.267
310.267
310.267
368.834
377.604
377.604
377.604
310.267
310.659
310.267
302.669
368.834
368.834
368.834
368.834
377.604
368.834
417.132
300.853
302.993
310.659
310.659
377.604
377.604
396.651
368.834
368.834
310.659
426.042
310.267
310.267
310.659
377.604
377.604
310.659
310.267
310.659
377.604
310.267
375.897
368.834
302.351
302.716
310.659
310.659
310.267
310.267
310.267
310.267
310.659
310.659
423.71
310.659
368.834
310.267
368.834
368.834
419.033
310.659
310.659
441.368
310.267
368.834
377.604
375.258
377.604
310.659
368.834
422.449
310.659
300.592
377.604
368.834
368.834
425.308
310.659
310.659
310.659
449.955
300.686
300.982
310.659
441.649
441.454
302.716
302.289
310.267
303.882
302.674
310.267
377.604
310.659
300.559
303.784
368.834
368.834
368.834
368.834
368.834
310.659
441.831
436.382
368.834
368.834
368.834
301.744
301.314
310.659
368.834
310.659
310.659
310.659
310.659
310.267
368.834
368.834
377.604
310.659
417.132
310.659
377.604
310.659
422.08
420.332
368.834
310.267
377.604
377.604
310.267
377.604
301.005
368.834
301.314
310.267
310.267
441.66
310.267
376.487
377.604
310.659
368.834
310.659
310.659
310.267
310.267
310.267
368.834
310.267
428.385
377.604
300.654
377.604
377.604
428.385
310.659
368.834
420.07
368.834
310.659
377.604
368.834
310.267
310.659
310.659
377.604
381.929
300.559
382.971
368.834
310.267
377.604
368.834
377.604
368.834
377.604
368.834
368.834
301.018
310.267
368.834
377.604
310.659
310.659
377.604
368.834
310.267
301.06
310.267
368.834
368.834
310.659
377.604
368.834
377.604
300.686
310.659
310.659
301.786
310.267
304.49
310.267
310.659
368.834
443.961
426.723
421.956
377.604
368.834
310.267
368.834
310.267
301.06
368.834
310.659
310.267
377.604
377.604
301.009
368.834
368.834
310.267
368.834
423.71
368.834
368.834
377.604
368.834
377.604
368.834
368.834
310.267
377.604
377.604
368.834
377.604
310.267
301.062
310.267
310.267
368.834
377.604
310.659
368.834
368.834
445.379
310.659
310.659
368.834
377.604
310.267
310.659
377.604
368.834
377.604
377.604
368.834
310.659
368.834
377.604
310.267
303.526
368.834
377.604
310.659
310.659
368.834
377.604
377.483
368.834
443.612
310.659
310.267
310.267
310.267
310.267
368.834
310.659
310.659
310.267
368.834
377.604
368.834
377.604
310.267
310.659
302.669
310.659
368.834