<?xml version="1.0"?>
<VTKFile type="PolyData" version="0.1" byte_order="LittleEndian">
  <PolyData>
    <Piece NumberOfPoints="50000" NumberOfVerts="50000" NumberOfLines="0" NumberOfStrips="0" NumberOfPolys="0">
      <Points>
        <DataArray type="Float32" NumberOfComponents="3" format="ascii">
0.246209 0.005454 0
-0.233277 0.00202328 0
0.238431 -0.0014164 0
0.24903 -0.00110105 0
-0.202835 0.00411669 0
-0.170336 0.00158826 0
0.0818956 -0.0156636 0
-0.209779 0.000239046 0
0.0723352 -0.0121648 0
-0.0162618 0.00576199 0
0.186956 -0.0075384 0
0.237666 0.00499221 0
-0.136519 0.00458936 0
-0.0967145 -0.0147459 0
-0.254815 0.00165546 0
0.192717 0.00773207 0
-0.0353487 -0.00105966 0
0.246945 0.00121054 0
0.0937112 0.00110593 0
-0.23354 0.00254013 0
-0.244764 0.00365157 0
0.213919 0.00435427 0
-0.241499 0.00182872 0
0.240874 0.000193743 0
0.153373 -0.00759187 0
0.179238 0.00816006 0
-0.23934 -0.00438015 0
0.247369 -0.00188468 0
-0.171184 0.0147026 0
-0.25218 0.00584759 0
-0.189639 0.00768906 0
-0.176136 -0.00988728 0
0.245051 0.000698942 0
0.246565 -0.000444473 0
0.0470885 0.00339465 0
0.25076 -0.000805315 0
0.0762304 0.00115251 0
-0.250153 0.00181982 0
-0.233853 -0.00295857 0
-0.25999 -0.00127554 0
0.180669 0.00830743 0
0.19105 0.00400751 0
-0.238941 -0.00118308 0
0.2435 0.000641479 0
0.252174 0.00101455 0
-0.245969 0.00564343 0
0.239966 0.00325982 0
0.122969 -0.00896178 0
0.236828 0.000418162 0
0.242481 0.000318385 0
0.101583 0.0134615 0
-0.241215 -0.000366262 0
-0.167481 0.00608253 0
0.239364 0.00201871 0
-0.237423 0.00179725 0
-0.253031 0.00189167 0
0.246473 -0.000564373 0
0.099488 0.00739294 0
0.184198 0.0048927 0
0.254433 -0.0027875 0
0.207641 0.00317702 0
0.249128 0.00186568 0
0.0549627 -0.0194859 0
0.254347 -0.000857216 0
-0.0815232 0.0106772 0
-0.23674 0.00119355 0
0.24176 -0.000324239 0
0.24828 -0.000161049 0
0.25677 0.00272545 0
0.177821 0.000848602 0
-0.239444 0.00233117 0
0.241507 0.00255397 0
0.132163 0.00102885 0
0.134772 0.00445934 0
0.115008 0.00343161 0
-0.243072 -0.00121884 0
0.210852 0.00792669 0
-0.23064 0.00299228 0
0.186067 0.00448314 0
-0.25247 0.00134168 0
-0.126832 -0.0203366 0
-0.247388 0.00303952 0
0.228368 0.00340382 0
-0.240529 0.000738691 0
0.25412 -0.00264846 0
-0.241042 0.0023844 0
0.254527 -0.0025925 0
-0.108223 -0.00489444 0
-0.104656 0.0143761 0
-0.243263 -0.00402974 0
0.239377 0.00436389 0
-0.237931 -3.96106e-05 0
0.240396 -0.000829 0
-0.163688 0.0122867 0
-0.024432 -0.0129943 0
-0.213907 0.00356721 0
0.240125 0.00562026 0
-0.245206 0.00234299 0
-0.258694 0.00483718 0
-0.256442 -0.000272014 0
-0.214872 -0.00426574 0
-0.23884 -0.00310794 0
0.256132 -0.000102339 0
-0.103082 -0.0122404 0
0.257944 -2.26698e-05 0
0.210989 0.00803312 0
0.155685 0.00441892 0
0.0125986 0.00511034 0
0.236984 0.0030613 0
-0.242067 -0.00248859 0
-0.182185 0.0123225 0
-0.245489 0.00228628 0
-0.209328 0.00677025 0
176.663 255.552 0
0.161714 0.00479876 0
-0.241898 0.00253272 0
-0.25087 0.00304861 0
4.53017 6.19701 0
-0.243775 0.00135391 0
-0.0120866 -0.00493549 0
0.247463 -0.00055267 0
-0.235193 -0.00197318 0
0.167063 -0.00179743 0
-0.224658 0.0048622 0
0.242826 -0.000107033 0
0.236055 -0.00026287 0
0.0775802 0.0148596 0
0.249327 0.00300477 0
-0.217731 -0.00384501 0
0.188232 -0.00023565 0
0.250896 -0.00161308 0
0.248846 6.36195e-05 0
-0.257574 0.000806581 0
-0.214822 0.00280866 0
0.254937 -0.000776326 0
0.242328 -0.000305963 0
0.233583 -0.00138669 0
-0.0385315 0.00224071 0
0.195186 -0.008282 0
0.189948 -0.00690916 0
0.195104 -0.00842224 0
0.231516 0.00617683 0
0.250417 -0.00174117 0
-0.0577407 -0.00815051 0
-0.249769 0.00443425 0
0.166088 -0.0133409 0
-0.15969 0.0125114 0
-0.246363 0.00155363 0
-0.175794 -0.011734 0
-0.247158 0.00258136 0
0.18887 0.00482251 0
0.240715 0.00171344 0
-0.0748041 -0.00684054 0
0.195885 -0.00593948 0
0.19477 0.00541478 0
0.238754 0.00270512 0
0.163385 -0.00556739 0
-0.242242 0.00202713 0
-0.104321 -0.00330361 0
0.249723 9.17481e-05 0
0.166848 -0.000679425 0
-0.219872 -0.00149223 0
-0.238006 0.00186534 0
-0.247483 0.00190379 0
-0.0637821 0.00639789 0
0.192284 -0.00352636 0
0.217333 -0.00308261 0
0.220079 0.00256 0
0.184309 0.00516143 0
-0.101494 0.000676173 0
0.257154 -0.00266353 0
-0.237226 0.00222087 0
-0.0561017 -0.00326308 0
0.248643 0.00297424 0
-0.04505 -0.00177784 0
-0.191331 0.00988161 0
-0.237871 0.00184056 0
-0.144439 -0.00638585 0
-0.241202 -0.00110336 0
-0.242283 -0.00370342 0
0.238311 0.000260388 0
-0.245023 0.00422431 0
-0.241288 0.00361413 0
0.246093 0.00358023 0
0.239991 -0.000245052 0
0.185414 -0.0102108 0
0.257703 -0.00177029 0
0.25491 0.000576838 0
0.247267 -0.00193655 0
0.027731 0.0182523 0
0.251462 -0.00191731 0
0.203551 -0.00524142 0
-0.163172 -0.0108452 0
0.226516 0.00422198 0
-0.22406 0.00419453 0
0.238294 0.00137829 0
-0.199555 0.00746099 0
-0.212762 0.00354502 0
-0.238782 0.00266533 0
0.241346 0.00333685 0
-0.159319 0.0118463 0
0.254214 0.00196414 0
0.220543 -0.00302053 0
-0.0499546 -0.00400167 0
0.257554 -0.00272549 0
-0.235501 -0.0045829 0
0.0335074 0.029285 0
0.102211 -0.00373941 0
-0.213002 0.00683366 0
-0.149948 -0.00587902 0
0.23595 0.000666322 0
-0.104461 -0.0124513 0
0.222248 -0.00192346 0
-0.205848 0.00702581 0
-0.140931 -0.0093129 0
-0.247412 0.00400442 0
-0.244111 0.00499925 0
0.244564 0.000134963 0
-0.250782 -0.000552877 0
-0.0292674 0.0130923 0
-0.192831 0.00745854 0
-0.250361 0.00251603 0
-0.232279 -0.0035923 0
0.255412 -0.00148922 0
0.0903942 0.01533 0
-0.238024 0.0021549 0
0.256664 0.000998954 0
0.246384 -0.000198562 0
-0.211383 0.0062589 0
-0.249506 -7.65852e-05 0
-0.245555 -0.00205645 0
0.239753 0.00291346 0
0.12478 0.0146815 0
-0.0376657 0.0094417 0
-0.254049 0.00299919 0
-0.218606 0.00389761 0
0.188279 -0.0103749 0
-0.192319 -0.00242692 0
-0.242715 0.00233071 0
0.1493 -0.00148052 0
0.251971 0.000282487 0
-0.222984 -0.00386764 0
-0.245586 0.0023496 0
-0.141728 -0.00824251 0
0.123131 0.00447221 0
0.219979 0.00285341 0
-0.231701 0.00459338 0
0.246578 -0.000197784 0
0.253702 0.00192736 0
0.145496 0.00795365 0
0.151824 0.00297274 0
-0.230811 0.00338537 0
0.238128 -0.00148938 0
-0.109007 -0.0054293 0
-0.22323 0.00526358 0
0.238545 0.000133567 0
-0.216363 0.00514084 0
0.210958 0.00578533 0
0.0914924 0.0145586 0
0.132158 0.000482329 0
0.253631 0.000864933 0
-0.230727 0.00327995 0
0.0465001 -0.00472324 0
0.0233923 -0.00820625 0
-0.164482 0.00238553 0
-0.242497 0.000933987 0
-0.238711 0.00207703 0
-0.237169 -0.000572391 0
0.244403 -0.000318994 0
0.242436 -0.000187182 0
0.249753 -0.000276947 0
-0.244708 -0.00147142 0
0.160257 0.00217881 0
0.0133289 0.00782392 0
-0.255459 0.00336084 0
-0.248351 0.00168878 0
0.237356 6.52918e-05 0
-0.237375 0.00212886 0
0.235499 0.00427241 0
-0.240921 -0.000604385 0
-0.233457 0.000204209 0
-0.107784 -0.0136548 0
-0.244713 0.00179065 0
0.231695 -0.00103371 0
-0.207777 0.006836 0
-0.234094 -0.0016684 0
-0.092685 0.0124115 0
-0.244042 0.00227971 0
-0.24781 0.00260986 0
0.209003 -0.00158489 0
-0.0867994 0.00443345 0
0.244048 -0.000269065 0
0.249387 -0.00146915 0
0.158904 0.00876751 0
0.253195 0.00232531 0
0.240586 0.00409742 0
0.252197 0.00287659 0
-0.167355 0.0144879 0
-0.229191 0.00154111 0
-0.2547 0.00085986 0
0.258689 0.000859878 0
-0.0342131 0.00479591 0
0.243203 -0.000772776 0
0.237446 0.0023174 0
0.250402 -0.000153773 0
0.0430596 0.00772441 0
-0.128215 0.0155161 0
0.210781 0.00357645 0
-0.0291934 0.000542237 0
-0.119487 0.00598908 0
-0.200202 0.00732904 0
0.24406 0.00437214 0
-0.177183 0.00914836 0
0.22571 -0.00296921 0
0.186062 -0.00258962 0
-0.253976 0.00411658 0
0.198328 -0.00865134 0
0.256102 -0.00286478 0
0.228979 -0.00153713 0
0.244848 0.00482722 0
-0.247773 0.00356482 0
-0.0540651 0.00945578 0
0.249638 0.00156701 0
0.248563 -0.000271656 0
0.114625 0.0153742 0
-0.236506 1.53888e-05 0
-0.231866 0.00336445 0
0.255845 0.00060572 0
-0.236934 -0.00154333 0
0.246917 0.00182781 0
0.248594 -0.00118045 0
0.118974 -0.0139382 0
0.23801 0.00244439 0
-0.243321 0.00231626 0
-0.207997 -7.12249e-05 0
-0.139595 -0.00124016 0
0.0199096 -0.00439782 0
0.0298159 -0.0174972 0
-0.223175 0.00235241 0
0.110675 -0.0155096 0
-0.0256831 0.0248951 0
-0.251308 0.0040028 0
-0.179333 0.00859693 0
-0.245275 0.00301055 0
-0.101336 -0.00795118 0
0.248539 0.0045019 0
-0.1741 0.00961857 0
-0.248365 0.000264451 0
-38.1245 157.694 0
0.247938 -0.00288488 0
0.247204 -0.000365789 0
-0.202091 0.00891734 0
0.240465 0.00212329 0
0.228048 -0.000305063 0
-344.172 -615.498 0
0.0758773 0.00920795 0
-0.245788 0.00256792 0
-0.204117 -0.00119291 0
0.245371 0.00246504 0
2.45574 -5.05794 0
0.232206 0.00334823 0
-0.240604 -0.00336386 0
-0.153341 0.000470576 0
-0.24435 -0.00169832 0
-0.249049 0.00440778 0
0.243581 -0.000302528 0
-0.252751 -0.000558946 0
-0.219086 0.0058912 0
0.191038 0.00795683 0
-0.238214 0.000350112 0
-0.198379 0.00892673 0
-0.220206 0.00530882 0
0.246042 0.0028826 0
0.221881 -0.00393018 0
-0.146418 0.0118949 0
0.253068 -0.000945309 0
-0.245944 -0.00313334 0
-0.228487 -0.00189174 0
-0.248568 0.00108167 0
0.0217393 -0.0185631 0
-0.239349 -0.00294776 0
0.242899 0.00291823 0
-0.243769 0.00255893 0
-0.242591 0.00152483 0
-0.059478 0.00951309 0
0.158903 0.00865142 0
-0.0789213 0.0224611 0
0.052439 0.0128662 0
-0.246076 0.00269789 0
-0.044205 0.00252713 0
-0.246578 -0.000275493 0
-0.247796 0.00366139 0
0.237319 -0.00322058 0
0.208881 0.00605748 0
-0.231676 0.00422764 0
0.220687 0.00330582 0
0.218997 0.00115412 0
-0.236392 0.0021853 0
-0.130254 -0.00398143 0
0.173181 -0.0101533 0
-0.236793 0.000826025 0
0.209795 -0.00509048 0
0.09624 -0.00259024 0
-0.243172 -0.000278896 0
0.22793 -4.12719e-05 0
0.239763 -0.0010822 0
0.243638 -0.00253344 0
0.248158 -0.000611137 0
0.252302 0.000357048 0
0.239304 0.00454288 0
-0.2449 0.00201121 0
0.176381 0.00621931 0
-0.202104 -0.002739 0
0.115798 0.0165781 0
-0.230544 0.00198821 0
-0.0820841 -0.00306255 0
-0.191004 0.00748699 0
0.070121 -0.00818648 0
-0.249977 0.00270654 0
0.239504 -0.00031176 0
-0.0670246 0.0183048 0
0.0858053 0.00980831 0
-0.253325 0.00238636 0
0.241318 0.00149085 0
0.248628 -7.45811e-05 0
[...]
      <PointData Scalars="T">
        <DataArray type="Float32" Name="T" format="ascii" NumberOfComponents="1">
311.018
382.51
311.052
311.052
382.51
470.41
311.052
505.051
311.052
382.51
311.052
311.018
382.51
393.279
478.561
311.018
393.279
301.265
301.022
382.51
382.51
311.018
446.774
304.554
311.052
311.018
393.279
311.052
382.51
382.51
382.51
393.279
301.04
311.052
311.018
311.052
301.13
451.351
393.279
393.279
311.018
311.018
393.279
301.228
300.74
382.51
311.018
311.052
302.85
303.51
311.018
393.279
382.51
311.018
458.508
441.188
311.052
311.018
311.018
311.052
311.018
307.294
311.052
311.052
382.51
512.535
311.052
311.052
311.018
300.846
382.51
311.018
300.672
311.018
311.018
393.279
311.018
382.51
311.018
480.661
393.279
382.51
311.018
475.196
311.052
382.51
311.052
393.279
382.51
393.279
311.018
393.279
311.052
382.51
393.279
382.51
311.018
382.51
382.51
393.279
393.279
393.279
311.052
393.279
311.052
311.018
311.018
311.018
311.018
393.279
382.51
382.51
382.51
311.018
311.018
382.51
382.51
311.018
482.343
393.279
311.052
393.279
311.052
382.51
311.052
311.052
311.018
311.018
393.279
311.052
311.052
304.768
509.891
382.51
311.052
311.052
311.052
382.51
311.052
311.052
311.052
311.018
311.052
393.279
382.51
311.052
382.51
471.143
393.279
382.51
311.018
305.613
393.279
311.052
311.018
311.018
311.052
382.51
393.279
304.545
311.052
393.279
441.971
439.63
382.51
311.052
311.052
311.018
311.018
477.288
311.052
382.51
393.279
311.018
393.279
382.51
443.793
393.279
393.279
393.279
304.305
382.51
382.51
311.018
311.052
311.052
311.052
301.596
311.052
311.018
311.052
311.052
393.279
311.018
382.51
301.626
382.51
382.51
382.51
311.018
382.51
311.018
311.052
393.279
311.052
393.279
311.018
311.052
382.51
393.279
301.144
393.279
311.052
382.51
393.279
382.51
382.51
304.253
393.279
382.51
382.51
382.51
393.279
311.052
311.018
382.51
300.677
311.052
382.51
393.279
393.279
311.018
311.018
382.51
382.51
382.51
311.052
393.279
382.51
311.052
303.99
393.279
382.51
393.279
311.018
311.018
382.51
311.052
311.018
311.018
311.018
382.51
311.052
393.279
382.51
304.253
382.51
311.018
311.018
302.017
300.763
382.51
311.052
311.052
382.51
495.104
382.51
393.279
311.052
311.052
311.052
393.279
311.018
311.018
382.51
480.854
304.768
382.51
311.018
393.279
502.065
393.279
458.508
311.052
382.51
393.279
382.51
382.51
382.51
311.052
382.51
311.052
311.052
311.018
311.018
311.018
311.018
382.51
471.658
490.108
300.809
382.51
311.052
311.018
311.052
311.018
382.51
311.018
465.451
382.51
382.51
311.018
382.51
311.052
311.052
382.51
311.052
311.052
311.052
311.018
382.51
382.51
303.634
311.052
311.018
506.637
382.51
301.384
393.279
306.857
311.052
311.052
311.018
382.51
393.279
393.279
311.052
311.052
382.51
311.052
382.51
382.51
382.51
382.51
393.279
311.018
382.51
509.785
382.51
311.052
311.052
382.51
311.018
311.052
393.279
311.018
382.51
393.279
311.018
311.052
311.018
393.279
479.543
393.279
382.51
311.052
393.279
382.51
311.018
491.476
382.51
382.51
311.018
311.052
382.51
311.052
393.279
393.279
507.362
311.052
393.279
311.018
382.51
471.562
382.51
311.018
382.51
311.018
382.51
382.51
393.279
382.51
311.052
311.018
382.51
311.018
301.13
382.51
393.279
311.052
498.046
311.052
311.052
393.279
311.052
311.052
311.052
311.052
303.012
311.018
382.51
311.018
393.279
311.018
382.51
393.279
382.51
311.052
382.51
311.052
382.51
311.018
382.51
302.725
311.052
311.018
311.052
382.51
441.971
311.052
382.51
311.018
439.63
311.018
503.228
393.279
382.51
382.51
311.018
301.216
382.51
311.052
466.893
393.279
393.279
382.51
393.279
311.018
311.052
393.279
306.225
393.279
393.279
311.052
311.052
393.279
382.51
475.967
393.279
300.893
393.279
301.792
382.51
393.279
311.052
311.018
393.279
393.279
382.51
382.51
311.018
475.552
311.052
311.052
311.018
382.51
382.51
382.51
304.567
311.018
481.3
393.279
393.279
441.958
301.125
311.018
311.052
300.679
382.51
311.018
311.018
300.689
382.51
311.018
311.052
393.279
311.052
382.51
382.51
382.51
393.279
393.279
393.279
393.279
393.279
311.052
311.052
311.052
311.018
311.052
311.018
311.018
393.279
311.018
382.51
311.052
311.018
382.51
311.018
382.51
482.343
382.51
479.082
311.018
311.052
311.018
311.052
311.052
311.052
382.51
311.018
311.018
468.077
311.018
469.589
382.51
393.279
311.052
311.052
382.51
382.51
393.279
393.279
393.279
311.018
311.018
303.452
311.018
393.279
382.51
311.018
382.51
301.11
311.018
393.279
382.51
311.052
382.51
311.018
311.018
393.279
311.018
393.279
311.052
501.687
382.51
301.131
311.052
393.279
393.279
488.044
382.51
382.51
311.018
311.052
311.052
300.809
311.018
393.279
478.209
508.489
393.279
382.51
311.018
311.052
382.51
311.018
393.279
300.689
311.018
301.927
451.351
311.018
393.279
506.776
311.018
311.052
393.279
311.018
382.51
311.052
311.052
311.018
305.132
393.279
393.279
382.51
534.501
311.018
393.279
311.052
393.279
393.279
311.018
304.768
393.279
393.279
382.51
382.51
311.052
311.052
382.51
500.883
393.279
311.018
311.052
382.51
382.51
311.052
311.052
311.018
311.018
443.793
393.279
393.279
393.279
393.279
311.018
382.51
311.018
311.018
393.279
382.51
304.581
311.052
393.279
382.51
311.052
393.279
393.279
382.51
311.052
393.279
465.488
311.018
382.51
382.51
311.052
311.018
382.51
311.018
311.052
470.979
311.018
311.052
382.51
382.51
311.052
311.052
304.768
311.018
311.018
505.964
506.637
382.51
382.51
311.018
382.51
393.279
300.972
311.018
382.51
469.94
382.51
311.052
311.018
311.018
311.018
382.51
311.052
311.052
495.327
382.51
311.018
311.052
311.018
311.018
306.288
382.51
311.018
311.018
311.052
382.51
311.018
382.51
311.052
311.018
311.052
311.018
311.052
382.51
303.296
495.729
311.018
382.51
382.51
382.51
311.052
393.279
311.018
382.51
304.655
311.018
393.279
311.052
498.046
393.279
509.785
467.755
382.51
382.51
311.052
311.052
311.052
304.927
311.052
475.208
311.018
382.51
503.264
311.052
311.052
382.51
300.892
382.51
311.018
382.51
382.51
382.51
393.279
393.279
300.988
382.51
311.018
382.51
393.279
382.51
393.279
393.279
304.3
311.018
311.052
382.51
393.279
382.51
471.143
393.279
382.51
393.279
311.018
382.51
393.279
311.052
311.052
311.052
480.742
382.51
393.279
311.018
393.279
301.165
382.51
393.279
393.279
311.018
304.768
311.018
301.584
311.052
382.51
382.51
311.052
382.51
311.018
480.525
311.018
441.971
393.279
311.018
382.51
301.503
382.51
382.51
311.052
301.131
393.279
311.018
311.052
301.366
311.018
382.51
393.279
503.264
311.018
382.51
301.531
311.018
311.052
311.052
508.489
382.51
301.777
382.51
382.51
311.052
304.655
311.018
311.052
382.51
393.279
311.018
382.51
305.745
311.018
382.51
382.51
311.018
499.864
311.052
311.052
382.51
382.51
311.052
300.972
382.51
393.279
393.279
311.018
301.477
478.209
382.51
382.51
477.243
393.279
311.052
382.51
311.052
478.561
311.052
305.675
478.197
311.052
469.94
311.018
311.052
382.51
393.279
311.018
311.052
311.018
311.018
311.018
311.018
382.51
311.018
311.052
500.883
311.052
311.018
382.51
304.373
311.052
311.018
382.51
382.51
393.279
311.052
393.279
311.052
393.279
451.351
382.51
311.018
393.279
503.646
393.279
311.052
500.966
382.51
311.052
306.857
393.279
393.279
311.052
382.51
311.052
311.052
393.279
311.018
393.279
305.128
311.052
311.018
311.052
311.018
311.018
382.51
305.433
311.052
311.052
382.51
311.052
393.279
382.51
393.279
311.052
311.018
382.51
393.279
382.51
311.052
382.51
382.51
304.216
311.052
311.018
311.018
382.51
467.755
311.052
382.51
311.018
382.51
393.279
301.552
393.279
311.052
382.51
393.279
382.51
382.51
382.51
478.209
393.279
382.51
382.51
311.018
488.893
311.052
311.052
311.052
311.052
311.018
382.51
304.545
382.51
311.018
382.51
311.018
304.2
393.279
311.018
382.51
311.052
311.018
311.052
393.279
311.052
382.51
300.893
393.279
393.279
311.018
393.279
382.51
382.51
393.279
311.052
311.018
311.018
311.018
393.279
311.052
393.279
311.052
301.617
311.018
311.018
311.018
311.052
311.052
393.279
311.018
311.018
393.279
382.51
311.052
382.51
300.672
382.51
393.279
382.51
475.552
393.279
382.51
307.692
393.279
311.018
480.091
311.052
382.51
311.018
382.51
382.51
311.018
311.018
382.51
311.052
311.018
303.753
301.11
393.279
382.51
499.112
510.306
311.052
382.51
302.203
382.51
382.51
311.052
311.052
382.51
311.018
311.052
303.382
311.052
382.51
304.305
311.018
382.51
382.51
382.51
393.279
382.51
311.052
382.51
311.052
393.279
302.466
311.052
311.018
382.51
393.279
393.279
382.51
311.052
311.018
393.279
311.052
301.022
393.279
393.279
311.052
382.51
301.265
311.052
311.018
393.279
382.51
382.51
382.51
311.018
510.306
311.018
471.562
382.51
311.052
311.018
311.018
311.052
311.018
500.38
492.24
393.279
382.51
311.052
308.132
311.018
311.018
311.018
311.018
393.279
382.51
382.51
382.51
393.279
382.51
382.51
302.324
311.052
311.052
311.052
311.052
382.51
311.052
382.51
301.04
393.279
382.51
311.018
458.508
503.967
311.052
507.362
311.052
311.052
311.052
311.052
311.018
311.018
311.052
311.018
393.279
300.752
471.143
311.018
311.018
304.216
393.279
311.052
393.279
311.018
311.018
311.018
311.018
382.51
311.052
382.51
311.018
304.305
311.052
504.485
502.731
504.863
311.052
311.052
393.279
311.018
382.51
308.132
311.052
393.279
382.51
495.104
311.052
311.018
382.51
311.052
382.51
311.018
382.51
382.51
467.544
382.51
311.052
311.052
393.279
382.51
382.51
382.51
311.052
393.279
311.018
382.51
311.018
311.018
382.51
382.51
311.018
382.51
305.328
311.052
311.052
382.51
301.191
311.052
393.279
382.51
311.052
382.51
311.052
382.51
382.51
311.052
393.279
393.279
304.577
304.405
311.018
311.052
311.018
393.279
306.182
311.018
382.51
382.51
311.052
382.51
311.018
300.672
477.632
382.51
311.018
504.485
475.196
300.983
311.052
507.725
476.572
311.052
382.51
488.893
393.279
393.279
382.51
311.052
311.052
382.51
382.51
311.052
393.279
311.052
311.018
311.018
382.51
382.51
311.052
473.692
311.018
382.51
311.018
311.052
471.126
311.052
311.052
393.279
382.51
393.279
393.279
382.51
382.51
382.51
382.51
311.018
304.3
311.052
382.51
311.052
382.51
382.51
304.581
382.51
382.51
311.018
382.51
393.279
311.052
393.279
393.279
311.018
382.51
311.018
305.295
311.052
311.052
382.51
311.018
301.504
382.51
382.51
311.018
382.51
382.51
301.86
311.052
311.052
393.279
311.052
382.51
301.584
311.052
495.637
382.51
382.51
311.052
304.25
382.51
382.51
382.51
393.279
305.128
393.279
311.052
393.279
393.279
303.618
311.018
311.052
393.279
311.018
311.052
311.018
478.284
311.052
491.456
503.264
382.51
382.51
477.811
393.279
393.279
311.018
311.018
393.279
382.51
382.51
311.052
382.51
382.51
382.51
393.279
393.279
311.052
311.052
311.018
382.51
311.018
311.018
311.052
393.279
311.052
302.281
311.018
300.913
311.018
382.51
491.328
501.687
382.51
475.731
311.052
393.279
393.279
311.018
382.51
393.279
382.51
474.131
444.945
382.51
509.785
311.052
393.279
393.279
382.51
393.279
382.51
311.052
393.279
382.51
311.052
311.052
311.052
393.279
393.279
382.51
311.018
382.51
393.279
301.843
382.51
382.51
382.51
311.018
382.51
311.018
311.018
311.052
393.279
311.052
301.461
393.279
502.616
311.052
311.018
393.279
382.51
382.51
311.052
382.51
393.279
382.51
311.018
311.018
311.052
311.018
393.279
382.51
382.51
311.052
311.018
382.51
311.018
311.018
499.619
393.279
393.279
311.018
311.018
311.018
441.958
311.018
499.47
311.018
382.51
382.51
471.562
311.018
304.927
311.052
311.052
393.279
311.052
311.052
478.284
382.51
311.018
311.018
303.111
382.51
311.052
382.51
311.052
311.018
311.052
301.022
505.964
382.51
504.236
311.018
311.052
311.052
311.052
382.51
311.018
382.51
306.225
304.488
311.018
393.279
302.46
382.51
311.018
311.018
311.052
393.279
311.052
311.052
311.052
311.052
311.018
492.24
311.018
311.052
382.51
393.279
504.236
469.195
382.51
382.51
469.589
382.51
311.052
311.052
393.279
311.018
382.51
480.091
444.945
311.052
393.279
393.279
311.018
311.052
311.018
311.018
311.018
471.562
311.018
311.018
311.052
311.018
382.51
301.284
485.623
393.279
393.279
311.052
393.279
382.51
382.51
382.51
382.51
382.51
509.891
382.51
307.294
311.018
311.052
382.51
311.052
439.63
311.052
311.018
382.51
300.917
302.947
311.018
311.018
311.052
477.288
311.052
300.835
382.51
311.018
473.746
311.018
382.51
311.052
304.25
382.51
382.51
393.279
382.51
393.279
382.51
311.052
311.052
311.052
393.279
311.018
382.51
311.052
393.279
311.018
382.51
382.51
393.279
382.51
304.36
311.052
393.279
311.052
311.018
393.279
382.51
303.99
311.018
382.51
311.018
311.018
311.052
304.581
311.052
393.279
382.51
393.279
393.279
311.018
311.052
311.018
301.125
311.052
382.51
504.545
504.236
311.052
300.823
311.052
311.052
382.51
311.052
311.018
311.018
311.018
304.577
311.018
382.51
382.51
382.51
311.018
382.51
382.51
311.052
300.763
304.402
300.677
382.51
311.018
382.51
311.018
311.018
382.51
311.052
393.279
393.279
393.279
311.052
393.279
393.279
476.572
393.279
393.279
382.51
393.279
393.279
478.284
311.052
382.51
382.51
311.018
311.018
311.052
311.052
311.018
382.51
382.51
311.018
393.279
393.279
311.018
458.508
393.279
303.634
311.018
311.052
382.51
382.51
311.052
382.51
382.51
311.052
393.279
301.115
302.931
311.052
311.052
382.51
382.51
382.51
311.052
382.51
382.51
382.51
382.51
393.279
382.51
311.018
393.279
382.51
382.51
311.018
382.51
311.052
382.51
475.967
311.018
382.51
393.279
311.052
311.052
393.279
500.883
504.16
304.373
475.196
382.51
475.196
393.279
382.51
393.279
393.279
311.018
311.052
393.279
382.51
311.052
311.018
311.052
393.279
311.052
311.052
311.018
311.018
382.51
393.279
382.51
382.51
304.164
467.755
311.018
446.774
393.279
393.279
311.052
300.633
393.279
382.51
311.052
478.197
311.018
311.052
311.018
311.052
311.052
311.018
458.508
393.279
393.279
382.51
311.052
304.545
393.279
303.382
478.209
382.51
382.51
393.279
382.51
311.018
311.052
382.51
393.279
305.745
311.018
382.51
311.052
382.51
311.052
311.052
311.052
382.51
311.018
311.052
311.052
311.018
393.279
300.633
393.279
393.279
311.052
311.052
393.279
475.731
311.018
311.052
311.052
393.279
393.279
382.51
311.018
311.018
393.279
311.018
311.052
498.326
311.052
311.018
382.51
393.279
509.785
382.51
382.51
483.31
382.51
382.51
307.692
393.279
300.751
393.279
393.279
311.018
471.126
382.51
382.51
393.279
311.052
382.51
393.279
306.547
382.51
481.3
382.51
311.018
311.052
311.018
311.052
393.279
393.279
382.51
393.279
460.606
382.51
393.279
382.51
443.793
311.052
311.018
311.018
301.777
300.988
393.279
499.112
311.018
311.018
393.279
393.279
382.51
311.052
471.126
382.51
382.51
311.052
382.51
311.052
311.018
300.94
311.052
382.51
311.018
382.51
382.51
393.279
311.018
382.51
311.018
301.216
304.035
304.25
382.51
393.279
302.203
304.488
301.165
311.018
311.018
311.052
393.279
311.052
311.052
382.51
503.877
382.51
311.052
311.052
311.052
444.945
471.562
382.51
311.018
382.51
311.018
465.451
302.426
311.052
311.052
311.052
382.51
311.018
393.279
302.117
304.3
311.018
382.51
393.279
393.279
382.51
393.279
393.279
303.137
382.51
503.264
311.052
311.052
305.745
382.51
382.51
393.279
393.279
311.018
382.51
393.279
393.279
311.018
382.51
503.411
311.052
382.51
311.018
393.279
311.052
441.971
393.279
311.018
382.51
311.052
393.279
382.51
311.052
311.018
393.279
382.51
382.51
311.052
382.51
393.279
311.052
506.747
311.018
311.018
501.687
311.018
311.052
311.052
311.052
301.531
393.279
311.052
311.018
492.785
311.018
382.51
393.279
393.279
382.51
393.279
311.052
393.279
311.018
311.018
311.018
311.052
311.018
311.052
311.052
311.018
393.279
306.857
311.018
393.279
311.052
311.052
311.018
300.763
393.279
311.052
311.052
393.279
311.018
393.279
393.279
311.052
382.51
382.51
311.052
382.51
306.225
301.531
311.018
311.052
311.052
311.052
311.052
304.768
300.879
382.51
393.279
506.776
311.018
302.203
382.51
311.052
311.052
503.264
311.052
311.018
311.052
311.052
311.052
382.51
311.018
311.052
382.51
311.052
393.279
311.018
311.052
311.018
382.51
393.279
311.018
382.51
382.51
311.052
311.052
311.052
382.51
311.018
300.78
496.968
382.51
311.052
311.052
311.018
393.279
393.279
393.279
311.052
311.018
311.052
506.637
382.51
311.052
302.074
311.018
311.018
311.052
382.51
311.018
393.279
311.018
382.51
382.51
306.182
311.018
382.51
468.009
311.018
393.279
492.537
480.993
491.456
382.51
382.51
393.279
311.052
311.052
509.24
307.969
508.489
311.018
311.052
393.279
311.052
311.052
382.51
311.052
487.055
468.077
382.51
382.51
311.018
311.018
311.052
393.279
311.052
393.279
311.052
311.052
441.971
393.279
382.51
301.86
301.461
311.018
303.382
393.279
311.052
382.51
311.052
382.51
311.052
382.51
382.51
311.018
311.052
393.279
304.3
382.51
311.018
382.51
393.279
393.279
393.279
311.052
382.51
393.279
467.544
393.279
393.279
311.052
382.51
311.052
311.052
311.018
311.052
311.018
311.052
382.51
393.279
468.009
311.018
311.018
382.51
311.052
304.554
311.052
311.052
382.51
382.51
311.018
311.018
311.052
304.768
498.046
300.74
393.279
444.945
382.51
311.052
382.51
300.983
393.279
311.052
382.51
393.279
311.018
382.51
311.018
311.052
311.018
505.263
508.045
302.769
311.052
311.052
311.052
311.018
506.637
311.018
303.248
382.51
311.052
311.018
311.052
393.279
311.018
311.018
393.279
471.143
467.544
302.695
311.052
465.488
382.51
503.967
393.279
311.052
311.052
382.51
393.279
311.052
393.279
382.51
382.51
311.052
311.018
393.279
504.863
393.279
311.052
393.279
393.279
311.018
311.018
311.018
311.018
382.51
393.279
393.279
393.279
311.018
311.052
311.018
311.052
382.51
382.51
382.51
382.51
393.279
382.51
465.488
301.442
305.861
311.052
311.052
393.279
393.279
382.51
382.51
382.51
311.052
476.31
311.018
311.018
311.052
393.279
393.279
311.052
311.018
311.052
393.279
311.018
382.51
382.51
305.514
311.052
311.052
311.052
311.018
311.018
311.018
311.018
311.052
311.052
478.561
311.052
382.51
311.018
382.51
382.51
471.562
311.052
311.052
504.474
311.018
382.51
393.279
382.51
393.279
311.052
382.51
478.197
311.052
300.745
393.279
382.51
382.51
479.651
311.052
311.052
311.052
393.279
300.917
301.927
311.052
506.25
505.051
311.052
304.964
311.018
311.018
311.052
311.018
393.279
311.052
300.677
308.132
382.51
382.51
382.51
382.51
382.51
311.052
505.051
498.326
382.51
382.51
382.51
303.99
302.931
311.052
382.51
311.052
311.052
311.052
311.052
311.018
382.51
382.51
393.279
311.052
465.488
311.052
393.279
311.052
477.243
467.544
382.51
311.018
393.279
393.279
311.018
393.279
301.626
382.51
302.91
311.018
311.018
503.877
311.018
382.51
393.279
311.052
382.51
311.052
311.052
311.018
311.018
311.018
382.51
311.018
491.328
393.279
300.892
393.279
393.279
488.044
311.052
382.51
474.827
382.51
311.052
393.279
382.51
311.018
311.052
311.052
393.279
382.51
300.647
382.51
382.51
311.018
393.279
382.51
393.279
382.51
393.279
382.51
382.51
301.531
311.018
382.51
393.279
311.052
311.052
393.279
382.51
311.018
302.132
311.018
382.51
382.51
311.052
393.279
382.51
393.279
300.988
311.052
311.052
304.079
311.018
311.018
311.018
311.052
382.51
393.279
479.651
477.288
393.279
382.51
311.018
382.51
311.018
302.203
382.51
311.052
311.018
393.279
393.279
301.461
382.51
382.51
311.018
382.51
480.742
382.51
382.51
393.279
382.51
393.279
382.51
382.51
311.018
393.279
393.279
382.51
393.279
311.018
301.949
311.018
311.018
382.51
393.279
311.052
382.51
382.51
510.887
311.052
311.052
382.51
393.279
311.018
311.052
393.279
382.51
393.279
393.279
382.51
311.052
382.51
393.279
311.018
307.188
382.51
393.279
311.052
311.052
382.51
393.279
382.51
382.51
507.362
311.052
311.018
311.018
311.018
311.018
382.51
311.052
311.052
311.018
382.51
393.279
382.51
393.279
311.018
311.052
311.052
311.052
382.51
382.51
382.51
311.052
382.51
300.835
393.279
311.052
382.51
311.018
304.581
382.51
507.183
475.731
311.052
382.51
382.51
393.279
311.052
382.51
311.052
382.51
502.065
311.018
311.052
393.279
382.51
311.052
311.018
311.018
306.07
311.052
382.51
311.018
305.675
382.51
382.51
311.052
311.052
382.51
382.51
478.53
311.052
311.052
382.51
311.052
311.018
382.51
311.018
301.131
499.47
393.279
382.51
311.018
382.51
393.279
311.052
382.51
311.052
311.052
500.966
311.018
393.279
382.51
382.51
393.279
311.052
311.052
311.018
311.052
301.115
311.018
382.51
491.456
393.279
382.51
311.052
482.343
311.052
382.51