<?xml version="1.0"?>
<VTKFile type="PolyData" version="0.1" byte_order="LittleEndian">
  <PolyData>
    <Piece NumberOfPoints="50000" NumberOfVerts="50000" NumberOfLines="0" NumberOfStrips="0" NumberOfPolys="0">
      <Points>
        <DataArray type="Float32" NumberOfComponents="3" format="ascii">
0.474352 0.00955621 0
-0.451429 0.00306265 0
0.459808 -0.00366765 0
0.480091 -0.00307609 0
-0.392944 0.00709075 0
-0.330236 0.00219591 0
0.157808 -0.031269 0
-0.405831 -0.00036485 0
0.139131 -0.0244596 0
-0.0325537 0.0103037 0
0.360731 -0.0154968 0
0.457808 0.00865261 0
-0.2648 0.00799561 0
-0.188357 -0.029465 0
-0.493192 0.00235434 0
0.371985 0.0140355 0
-0.0693197 -0.00294073 0
0.476241 0.00139555 0
0.180334 0.00123069 0
-0.452076 0.00405442 0
-0.473557 0.00621824 0
0.412782 0.00749852 0
-0.467535 0.00267927 0
0.464192 -0.000579961 0
0.295726 -0.0155953 0
0.34597 0.0148643 0
-0.463815 -0.00933978 0
0.476748 -0.00459766 0
-0.332313 0.0275789 0
-0.487964 0.0104657 0
-0.367561 0.0139911 0
-0.341904 -0.0200183 0
0.472178 0.000387301 0
0.475427 -0.00179684 0
0.0902237 0.00566608 0
0.483383 -0.00250611 0
0.146509 0.00132337 0
-0.483815 0.00269096 0
-0.453113 -0.00658287 0
-0.503528 -0.00332182 0
0.348755 0.0151502 0
0.368567 0.00683135 0
-0.462149 -0.00310811 0
0.469184 0.000276813 0
0.486348 0.00101633 0
-0.475962 0.0100712 0
0.462263 0.00532149 0
0.237014 -0.0182522 0
0.456446 -0.000140045 0
0.467294 -0.000339657 0
0.195917 0.0251585 0
-0.466547 -0.00153262 0
-0.324695 0.0108861 0
0.461186 0.00293712 0
-0.459386 0.00263389 0
-0.489751 0.00281256 0
0.474965 -0.00205081 0
0.191676 0.0133997 0
0.35531 0.00854107 0
0.490397 -0.00634539 0
0.400557 0.00522015 0
0.480002 0.00262772 0
0.105605 -0.0386797 0
0.490398 -0.00260296 0
-0.158651 0.0197774 0
-0.45795 0.00147384 0
0.466069 -0.00156978 0
0.478914 -0.00124394 0
0.495417 0.00433083 0
0.342846 0.000720063 0
-0.463465 0.00365246 0
0.465355 0.00397073 0
0.253943 0.00100431 0
0.259852 0.00769303 0
0.221494 0.0057261 0
-0.470127 -0.0031761 0
0.40713 0.0144162 0
-0.446503 0.00492423 0
0.358988 0.00775434 0
-0.488703 0.00174257 0
-0.246875 -0.0403244 0
-0.478705 0.0050319 0
0.439928 0.00560602 0
-0.465262 0.000597722 0
0.489792 -0.00607589 0
-0.46659 0.00375453 0
0.490669 -0.00596191 0
-0.210305 -0.0103557 0
-0.203537 0.0269508 0
-0.470449 -0.00859278 0
0.461126 0.00745184 0
-0.460208 -0.000903274 0
0.463586 -0.00253645 0
-0.317667 0.0228927 0
-0.0483649 -0.026114 0
-0.414205 0.00603062 0
0.462566 0.00987181 0
-0.474557 0.00367853 0
-0.500556 0.00851065 0
-0.496567 -0.00138121 0
-0.416492 -0.00911212 0
-0.461911 -0.00681693 0
0.493948 -0.00114475 0
-0.200633 -0.0245934 0
0.497446 -0.000986429 0
0.407374 0.0146218 0
0.299377 0.00754587 0
0.0237078 0.00903644 0
0.457289 0.00499254 0
-0.468108 -0.00561737 0
-0.353449 0.0229637 0
-0.47501 0.0035734 0
-0.405613 0.0122192 0
352.34 509.679 0
0.311839 0.00834807 0
-0.468194 0.00404123 0
-0.485475 0.00505138 0
9.05602 12.3884 0
-0.471501 0.00178858 0
-0.0244681 -0.010518 0
0.476927 -0.00202359 0
-0.454794 -0.00461623 0
0.321786 -0.004432 0
-0.435095 0.00853206 0
0.468192 -0.00114485 0
0.455026 -0.00145079 0
0.149461 0.0278835 0
0.481075 0.00487571 0
-0.422026 -0.00829771 0
0.363018 -0.00137567 0
0.483702 -0.00406741 0
0.479866 -0.000817792 0
-0.498617 0.000708558 0
-0.416036 0.00456691 0
0.491361 -0.00245766 0
0.467007 -0.00154566 0
0.450427 -0.00360951 0
-0.0755241 0.00344643 0
0.376711 -0.0169399 0
0.366454 -0.0142783 0
0.376551 -0.017208 0
0.446907 0.0110206 0
0.482662 -0.00431915 0
-0.112731 -0.0166742 0
-0.483312 0.00773207 0
0.320691 -0.0267456 0
-0.309925 0.0233282 0
-0.476823 0.0021562 0
-0.341403 -0.0236105 0
-0.478302 0.00414603 0
0.364357 0.00840581 0
0.463864 0.0023513 0
-0.145705 -0.0141294 0
0.377858 -0.0124015 0
0.375768 0.00954823 0
0.45992 0.00425074 0
0.315016 -0.0116822 0
-0.468656 0.00307928 0
-0.202703 -0.00727586 0
0.481283 -0.000779363 0
0.321543 -0.00223419 0
-0.425294 -0.00370112 0
-0.46047 0.00276633 0
-0.478742 0.00284503 0
-0.124292 0.0114909 0
0.370805 -0.00773964 0
0.419142 -0.00688267 0
0.424605 0.0040269 0
0.354694 0.0089811 0
-0.19721 0.00042301 0
0.495743 -0.00609964 0
-0.459011 0.00344769 0
-0.109426 -0.00720159 0
0.479022 0.00476575 0
-0.0881601 -0.00433667 0
-0.371018 0.0182361 0
-0.46025 0.00271482 0
-0.280519 -0.0132316 0
-0.466546 -0.0029549 0
-0.468557 -0.00796408 0
0.459312 -0.000444122 0
-0.47397 0.00733074 0
-0.466785 0.00614828 0
0.474135 0.00594433 0
0.462649 -0.00141603 0
0.357883 -0.020672 0
0.4968 -0.00437273 0
0.491633 0.000168701 0
0.476605 -0.00469412 0
0.0530083 0.0345454 0
0.48475 -0.00465587 0
0.392648 -0.0110528 0
-0.316913 -0.0218839 0
0.43707 0.00723273 0
-0.433908 0.00724282 0
0.459196 0.00170604 0
-0.386752 0.0135535 0
-0.411986 0.0059875 0
-0.462236 0.00429597 0
0.464928 0.00546939 0
-0.309174 0.0220396 0
0.490386 0.00285659 0
0.425357 -0.00676319 0
-0.097572 -0.00863735 0
0.496563 -0.00621915 0
-0.455443 -0.00965451 0
0.0644407 0.05615 0
0.196696 -0.00814134 0
-0.412708 0.0123404 0
-0.291058 -0.0122562 0
0.454714 0.000333958 0
-0.203314 -0.025003 0
0.428591 -0.00464443 0
-0.398878 0.0127109 0
-0.273768 -0.0189074 0
-0.47867 0.00690088 0
-0.472291 0.0088253 0
0.471319 -0.000694461 0
-0.485647 -0.00192555 0
-0.0575506 0.0244681 0
-0.373751 0.0135482 0
-0.484585 0.00402315 0
-0.450126 -0.00781703 0
0.492426 -0.00382782 0
0.174361 0.0288009 0
-0.460516 0.00332423 0
0.495104 0.000993214 0
0.474838 -0.00133921 0
-0.409535 0.0112298 0
-0.482515 -0.000965564 0
-0.474834 -0.00478003 0
0.461858 0.00465529 0
0.240835 0.0275249 0
-0.0737862 0.0173923 0
-0.491524 0.00495676 0
-0.423343 0.00666886 0
0.36344 -0.0209907 0
-0.372799 -0.00555024 0
-0.469786 0.00365201 0
0.287693 -0.00378061 0
0.485985 -0.000392101 0
-0.431231 -0.00826808 0
-0.475122 0.00370294 0
-0.27533 -0.0168328 0
0.237244 0.00773839 0
0.424425 0.00459416 0
-0.448784 0.00801432 0
0.47525 -0.00133517 0
0.489469 0.0027916 0
0.280659 0.014476 0
0.292722 0.00483662 0
-0.446869 0.00568196 0
0.459259 -0.00380896 0
-0.211879 -0.0113951 0
-0.432364 0.00930736 0
0.459878 -0.000682804 0
-0.419078 0.00906897 0
0.407231 0.0102733 0
0.176416 0.0272916 0
0.254416 -1.88406e-05 0
0.489193 0.000725492 0
-0.446704 0.00547831 0
0.0891308 -0.0100507 0
0.0444047 -0.0168003 0
-0.318822 0.00373897 0
-0.469031 0.000977243 0
-0.461988 0.00316438 0
-0.458651 -0.00192174 0
0.471052 -0.00156883 0
0.467505 -0.00129921 0
0.481546 -0.00147724 0
-0.473196 -0.00365019 0
0.308944 0.00329688 0
0.025315 0.0144565 0
-0.4943 0.00565448 0
-0.480662 0.0024173 0
0.457504 -0.000820552 0
-0.459407 0.00326311 0
0.454465 0.00733159 0
-0.466012 -0.00199328 0
-0.452067 -0.000453591 0
-0.209718 -0.0273339 0
-0.47346 0.0026219 0
0.446751 -0.00292908 0
-0.402597 0.0123442 0
-0.453465 -0.00408571 0
-0.180275 0.0231369 0
-0.472021 0.00357724 0
-0.479563 0.00420118 0
0.402909 -0.00398962 0
-0.168671 0.00768951 0
0.470407 -0.00146836 0
0.480741 -0.00378926 0
0.306579 0.0160447 0
0.488449 0.00355483 0
0.4635 0.00694299 0
0.486588 0.0046222 0
-0.32489 0.0271613 0
-0.443441 0.00214188 0
-0.493105 0.000808016 0
0.498945 0.000719698 0
-0.0671072 0.00838248 0
0.468863 -0.00244134 0
0.457515 0.00351303 0
0.482834 -0.00124128 0
0.0824866 0.0140503 0
-0.249186 0.029159 0
0.406646 0.00599206 0
-0.057404 0.000162401 0
-0.23192 0.0107011 0
-0.387989 0.0132967 0
0.470153 0.00745763 0
-0.343592 0.0168144 0
0.435342 -0.0066641 0
0.358711 -0.00592841 0
-0.491396 0.00711668 0
0.382802 -0.0176519 0
0.493758 -0.00648872 0
0.44153 -0.00390022 0
0.471727 0.00834901 0
-0.479417 0.00604923 0
-0.105501 0.0174078 0
0.481576 0.00209457 0
0.479273 -0.00147145 0
0.221162 0.0288634 0
-0.457416 -0.000792756 0
-0.448903 0.0056414 0
0.493436 0.000225324 0
-0.458961 -0.00384556 0
0.475758 0.00256374 0
0.479207 -0.00323093 0
0.229505 -0.0279044 0
0.459178 0.00379507 0
-0.470893 0.00363343 0
-0.403033 -0.0010076 0
-0.270789 -0.00327542 0
0.0376904 -0.00943247 0
0.0569902 -0.034911 0
-0.431981 0.00369046 0
0.213484 -0.0309548 0
-0.0507765 0.0474945 0
-0.486142 0.00690126 0
-0.347686 0.0157465 0
-0.474626 0.00497649 0
-0.197082 -0.0162779 0
0.478855 0.00772038 0
-0.337658 0.0177247 0
-0.480319 -0.000308444 0
-78.2479 323.65 0
0.477845 -0.00653555 0
0.476647 -0.00165461 0
-0.391752 0.0163701 0
0.463312 0.0031386 0
0.439615 -0.00152433 0
-697.75 -1247.81 0
0.146029 0.01692 0
-0.475431 0.00413133 0
-0.39557 -0.00317767 0
0.473334 0.00382393 0
4.92084 -10.1382 0
0.448056 0.00554742 0
-0.465265 -0.00729652 0
-0.297369 3.40562e-05 0
-0.472504 -0.00408932 0
-0.481777 0.00768396 0
0.469761 -0.00152027 0
-0.489445 -0.001934 0
-0.424412 0.0105203 0
0.368745 0.014471 0
-0.461212 -0.000171516 0
-0.384564 0.016387 0
-0.426519 0.00939424 0
0.474705 0.00463944 0
0.428 -0.00852011 0
-0.284241 0.0221362 0
0.487928 -0.00277427 0
-0.475629 -0.00686438 0
-0.442723 -0.00452648 0
-0.480793 0.00126082 0
0.0413046 -0.0369903 0
-0.462858 -0.00650358 0
0.468042 0.00467292 0
-0.4719 0.00409092 0
-0.469248 0.00211614 0
-0.115998 0.0175255 0
0.306607 0.0158241 0
-0.153862 0.0426473 0
0.100739 0.0240153 0
-0.476073 0.00437599 0
-0.0864353 0.00399476 0
-0.476903 -0.0013556 0
-0.479407 0.00623806 0
0.45753 -0.00717993 0
0.403207 0.0107986 0
-0.448652 0.00730815 0
0.425086 0.00541626 0
0.422403 0.0013057 0
-0.457507 0.00337111 0
-0.252842 -0.0085825 0
0.334216 -0.0205592 0
-0.457968 0.000772974 0
0.404717 -0.0107624 0
0.185101 -0.00591852 0
-0.470906 -0.00138941 0
0.439629 -0.00100849 0
0.462483 -0.0030221 0
0.46954 -0.00585172 0
0.478393 -0.00212776 0
0.486569 -0.000256124 0
0.460986 0.00779704 0
-0.473865 0.00304394 0
0.340356 0.0111178 0
-0.391722 -0.00615513 0
0.223573 0.0312175 0
-0.446167 0.00299405 0
-0.159711 -0.00681392 0
-0.370215 0.0136028 0
0.134732 -0.0167461 0
-0.483741 0.00438607 0
0.4617 -0.00154569 0
-0.130736 0.0345767 0
0.165271 0.018071 0
-0.490257 0.00376957 0
0.464999 0.00191987 0
0.479406 -0.00108727 0
0.458077 0.00987986 0
0.489543 -0.00578205 0
-0.467429 0.00362069 0
-0.48221 0.00275532 0
0.476018 -0.00206345 0
[...]
      <PointData Scalars="T">
        <DataArray type="Float32" Name="T" format="ascii" NumberOfComponents="1">
317.724
460.035
316.645
316.645
460.035
460.035
316.645
474.35
316.645
460.035
316.645
317.724
460.035
474.35
460.035
317.724
474.35
310.01
306.247
460.035
460.035
317.724
460.035
316.645
316.645
317.724
474.35
316.645
460.035
460.035
460.035
474.35
314.899
316.645
317.724
316.645
306.741
460.035
474.35
474.35
317.724
317.724
474.35
321.297
302.657
460.035
317.724
316.645
316.645
316.645
317.724
474.35
460.035
317.724
460.035
460.035
316.645
317.724
317.724
316.645
317.724
317.724
316.645
316.645
460.035
996.122
316.645
316.645
317.724
305.893
460.035
317.724
303.226
317.724
317.724
474.35
317.724
460.035
317.724
886.014
474.35
460.035
317.724
873.016
316.645
460.035
316.645
474.35
460.035
474.35
317.724
474.35
316.645
460.035
474.35
460.035
317.724
460.035
460.035
474.35
474.35
474.35
316.645
474.35
316.645
317.724
317.724
317.724
317.724
474.35
460.035
460.035
460.035
317.724
317.724
460.035
460.035
317.724
895.986
474.35
316.645
474.35
316.645
460.035
316.645
316.645
317.724
317.724
474.35
316.645
316.645
316.645
1054.64
460.035
316.645
316.645
316.645
460.035
316.645
316.645
316.645
317.724
316.645
474.35
460.035
316.645
460.035
460.035
474.35
460.035
317.724
317.724
474.35
316.645
317.724
317.724
316.645
460.035
474.35
316.645
316.645
474.35
460.035
460.035
460.035
316.645
316.645
317.724
317.724
901.575
316.645
460.035
474.35
317.724
474.35
460.035
460.035
474.35
474.35
474.35
316.645
460.035
460.035
317.724
316.645
316.645
316.645
328.98
316.645
317.724
316.645
316.645
474.35
317.724
460.035
325.69
460.035
460.035
460.035
317.724
460.035
317.724
316.645
474.35
316.645
474.35
317.724
316.645
460.035
474.35
318.961
474.35
316.645
460.035
474.35
460.035
460.035
316.645
474.35
460.035
460.035
460.035
474.35
316.645
317.724
460.035
303.082
316.645
460.035
474.35
474.35
317.724
317.724
460.035
460.035
460.035
316.645
474.35
460.035
316.645
316.645
474.35
460.035
474.35
317.724
317.724
460.035
316.645
317.724
317.724
317.724
460.035
316.645
474.35
460.035
316.645
460.035
317.724
317.724
316.645
305.893
460.035
316.645
316.645
460.035
902.159
460.035
474.35
316.645
316.645
316.645
474.35
317.724
317.724
460.035
460.035
316.645
460.035
317.724
474.35
474.35
474.35
460.035
316.645
460.035
474.35
460.035
460.035
460.035
316.645
460.035
316.645
316.645
317.724
317.724
317.724
317.724
460.035
460.035
923.769
306.233
460.035
316.645
317.724
316.645
317.724
460.035
317.724
862.443
460.035
460.035
317.724
460.035
316.645
316.645
460.035
316.645
316.645
316.645
317.724
460.035
460.035
317.724
316.645
317.724
474.35
460.035
324.713
474.35
317.724
316.645
316.645
317.724
460.035
474.35
474.35
316.645
316.645
460.035
316.645
460.035
460.035
460.035
460.035
474.35
317.724
460.035
474.35
460.035
316.645
316.645
460.035
317.724
316.645
474.35
317.724
460.035
474.35
317.724
316.645
317.724
474.35
871.957
474.35
460.035
316.645
474.35
460.035
317.724
474.35
460.035
460.035
317.724
316.645
460.035
316.645
474.35
474.35
1000.77
316.645
474.35
317.724
460.035
460.035
460.035
317.724
460.035
317.724
460.035
460.035
474.35
460.035
316.645
317.724
460.035
317.724
306.416
460.035
474.35
316.645
897.277
316.645
316.645
474.35
316.645
316.645
316.645
316.645
316.645
317.724
460.035
317.724
474.35
317.724
460.035
474.35
460.035
316.645
460.035
316.645
460.035
317.724
460.035
317.724
316.645
317.724
316.645
460.035
460.035
316.645
460.035
317.724
460.035
317.724
1014.2
474.35
460.035
460.035
317.724
308.612
460.035
316.645
835.008
474.35
474.35
460.035
474.35
317.724
316.645
474.35
317.724
474.35
474.35
316.645
316.645
474.35
460.035
883.81
474.35
310.153
474.35
331.898
460.035
474.35
316.645
317.724
474.35
474.35
460.035
460.035
317.724
896.241
316.645
316.645
317.724
460.035
460.035
460.035
316.645
317.724
474.35
474.35
474.35
460.035
307.206
317.724
316.645
304.442
460.035
317.724
317.724
303.071
460.035
317.724
316.645
474.35
316.645
460.035
460.035
460.035
474.35
474.35
474.35
474.35
474.35
316.645
316.645
316.645
317.724
316.645
317.724
317.724
474.35
317.724
460.035
316.645
317.724
460.035
317.724
460.035
890.574
460.035
474.35
317.724
316.645
317.724
316.645
316.645
316.645
460.035
317.724
317.724
837.731
317.724
849.652
460.035
474.35
316.645
316.645
460.035
460.035
474.35
474.35
474.35
317.724
317.724
317.724
317.724
474.35
460.035
317.724
460.035
318.167
317.724
474.35
460.035
316.645
460.035
317.724
317.724
474.35
317.724
474.35
316.645
940.791
460.035
306.139
316.645
474.35
474.35
940.311
460.035
460.035
317.724
316.645
316.645
308.468
317.724
474.35
885.95
474.35
474.35
460.035
317.724
316.645
460.035
317.724
474.35
302.916
317.724
316.645
460.035
317.724
474.35
1003.8
317.724
316.645
474.35
317.724
460.035
316.645
316.645
317.724
316.645
474.35
474.35
460.035
1031.23
317.724
474.35
316.645
474.35
474.35
317.724
316.645
474.35
474.35
460.035
460.035
316.645
316.645
460.035
474.35
474.35
317.724
316.645
460.035
460.035
316.645
316.645
317.724
317.724
460.035
474.35
474.35
474.35
474.35
317.724
460.035
317.724
317.724
474.35
460.035
316.645
316.645
474.35
460.035
316.645
474.35
474.35
460.035
316.645
474.35
460.035
317.724
460.035
460.035
316.645
317.724
460.035
317.724
316.645
460.035
317.724
316.645
460.035
460.035
316.645
316.645
316.645
317.724
317.724
474.35
474.35
460.035
460.035
317.724
460.035
474.35
313.114
317.724
460.035
460.035
460.035
316.645
317.724
317.724
317.724
460.035
316.645
316.645
943.931
460.035
317.724
316.645
317.724
317.724
317.724
460.035
317.724
317.724
316.645
460.035
317.724
460.035
316.645
317.724
316.645
317.724
316.645
460.035
317.724
460.035
317.724
460.035
460.035
460.035
316.645
474.35
317.724
460.035
316.645
317.724
474.35
316.645
940.458
474.35
474.35
460.035
460.035
460.035
316.645
316.645
316.645
316.645
316.645
862.443
317.724
460.035
474.35
316.645
316.645
460.035
310.153
460.035
317.724
460.035
460.035
460.035
474.35
474.35
312.825
460.035
317.724
460.035
474.35
460.035
474.35
474.35
316.645
317.724
316.645
460.035
474.35
460.035
460.035
474.35
460.035
474.35
317.724
460.035
474.35
316.645
316.645
316.645
460.035
460.035
474.35
317.724
474.35
306.741
460.035
474.35
474.35
317.724
316.645
317.724
324.279
316.645
460.035
460.035
316.645
460.035
317.724
460.035
317.724
460.035
474.35
317.724
460.035
318.216
460.035
460.035
316.645
306.924
474.35
317.724
316.645
313.008
317.724
460.035
474.35
474.35
317.724
460.035
323.253
317.724
316.645
316.645
474.35
460.035
330.737
460.035
460.035
316.645
316.645
317.724
316.645
460.035
474.35
317.724
460.035
317.724
317.724
460.035
460.035
317.724
1025.49
316.645
316.645
460.035
460.035
316.645
312.589
460.035
474.35
474.35
317.724
316.256
882.332
460.035
460.035
880.025
474.35
316.645
460.035
316.645
460.035
316.645
316.645
912.27
316.645
460.035
317.724
316.645
460.035
474.35
317.724
316.645
317.724
317.724
317.724
317.724
460.035
317.724
316.645
474.35
316.645
317.724
460.035
316.645
316.645
317.724
460.035
460.035
474.35
316.645
474.35
316.645
474.35
460.035
460.035
317.724
474.35
474.35
474.35
316.645
937.855
460.035
316.645
317.724
474.35
474.35
316.645
460.035
316.645
316.645
474.35
317.724
474.35
317.724
316.645
317.724
316.645
317.724
317.724
460.035
317.724
316.645
316.645
460.035
316.645
474.35
460.035
474.35
316.645
317.724
460.035
474.35
460.035
316.645
460.035
460.035
316.645
316.645
317.724
317.724
460.035
460.035
316.645
460.035
317.724
460.035
474.35
318.216
474.35
316.645
460.035
474.35
460.035
460.035
460.035
868.457
474.35
460.035
460.035
317.724
460.035
316.645
316.645
316.645
316.645
317.724
460.035
316.645
460.035
317.724
460.035
317.724
317.724
474.35
317.724
460.035
316.645
317.724
316.645
474.35
316.645
460.035
309.883
474.35
474.35
317.724
474.35
460.035
460.035
474.35
316.645
317.724
317.724
317.724
474.35
316.645
474.35
316.645
329.207
317.724
317.724
317.724
316.645
316.645
474.35
317.724
317.724
474.35
460.035
316.645
460.035
303.071
460.035
474.35
460.035
883.582
474.35
460.035
317.724
474.35
317.724
460.035
316.645
460.035
317.724
460.035
460.035
317.724
317.724
460.035
316.645
317.724
316.645
318.167
474.35
460.035
474.35
1047.22
316.645
460.035
316.645
460.035
460.035
316.645
316.645
460.035
317.724
316.645
316.645
316.645
460.035
316.645
317.724
460.035
460.035
460.035
474.35
460.035
316.645
460.035
316.645
474.35
344.274
316.645
317.724
460.035
474.35
474.35
460.035
316.645
317.724
474.35
316.645
304.778
474.35
474.35
316.645
460.035
310.01
316.645
317.724
474.35
460.035
460.035
460.035
317.724
970.483
317.724
460.035
460.035
316.645
317.724
317.724
316.645
317.724
474.35
942.932
474.35
460.035
316.645
317.724
317.724
317.724
317.724
317.724
474.35
460.035
460.035
460.035
474.35
460.035
460.035
316.645
316.645
316.645
316.645
316.645
460.035
316.645
460.035
313.114
474.35
460.035
317.724
460.035
1030.81
316.645
1009.58
316.645
316.645
316.645
316.645
317.724
317.724
316.645
317.724
474.35
302.925
460.035
317.724
317.724
316.645
474.35
316.645
474.35
317.724
317.724
317.724
317.724
460.035
316.645
460.035
317.724
316.645
316.645
989.909
987.398
970.887
316.645
316.645
474.35
317.724
460.035
317.724
316.645
474.35
460.035
850.328
316.645
317.724
460.035
316.645
460.035
317.724
460.035
460.035
879.311
460.035
316.645
316.645
474.35
460.035
460.035
460.035
316.645
474.35
317.724
460.035
317.724
317.724
460.035
460.035
317.724
460.035
316.645
316.645
316.645
460.035
318.972
316.645
474.35
460.035
316.645
460.035
316.645
460.035
460.035
316.645
474.35
474.35
316.645
316.645
317.724
316.645
317.724
474.35
317.724
317.724
460.035
460.035
316.645
460.035
317.724
302.657
883.582
460.035
317.724
990.292
846.79
304.759
316.645
474.35
460.035
316.645
460.035
460.035
474.35
474.35
460.035
316.645
316.645
460.035
460.035
316.645
474.35
316.645
317.724
317.724
460.035
460.035
316.645
852.233
317.724
460.035
317.724
316.645
460.035
316.645
316.645
474.35
460.035
474.35
474.35
460.035
460.035
460.035
460.035
317.724
316.645
316.645
460.035
316.645
460.035
460.035
316.645
460.035
460.035
317.724
460.035
474.35
316.645
474.35
474.35
317.724
460.035
317.724
317.724
316.645
316.645
460.035
317.724
316.76
460.035
460.035
317.724
460.035
460.035
332.279
316.645
316.645
474.35
316.645
460.035
324.407
316.645
965.159
460.035
460.035
316.645
316.645
460.035
460.035
460.035
474.35
317.724
474.35
316.645
474.35
474.35
316.645
317.724
316.645
474.35
317.724
316.645
317.724
904.64
316.645
928.664
474.35
460.035
460.035
871.957
474.35
474.35
317.724
317.724
474.35
460.035
460.035
316.645
460.035
460.035
460.035
474.35
474.35
316.645
316.645
317.724
460.035
317.724
317.724
316.645
474.35
316.645
342.064
317.724
310.681
317.724
460.035
936.027
990.836
460.035
460.035
316.645
474.35
474.35
317.724
460.035
474.35
460.035
883.869
460.035
460.035
474.35
316.645
474.35
474.35
460.035
474.35
460.035
316.645
474.35
460.035
316.645
316.645
316.645
474.35
474.35
460.035
317.724
460.035
474.35
329.404
460.035
460.035
460.035
317.724
460.035
317.724
317.724
316.645
474.35
316.645
316.76
474.35
959.272
316.645
317.724
474.35
460.035
460.035
316.645
460.035
474.35
460.035
317.724
317.724
316.645
317.724
474.35
460.035
460.035
316.645
317.724
460.035
317.724
317.724
474.35
474.35
474.35
317.724
317.724
317.724
460.035
317.724
941.605
317.724
460.035
460.035
460.035
317.724
316.645
316.645
316.645
474.35
316.645
316.645
905.978
460.035
317.724
317.724
316.645
460.035
316.645
460.035
316.645
317.724
316.645
306.48
474.35
460.035
474.35
317.724
316.645
316.645
316.645
460.035
317.724
460.035
317.724
316.645
317.724
474.35
316.645
460.035
317.724
317.724
316.645
474.35
316.645
316.645
316.645
316.645
317.724
954.815
317.724
316.645
460.035
474.35
474.35
847.966
460.035
460.035
850.162
460.035
316.645
316.645
474.35
317.724
460.035
460.035
460.035
316.645
474.35
474.35
317.724
316.645
317.724
317.724
317.724
460.035
317.724
317.724
316.645
317.724
460.035
321.83
920.708
474.35
474.35
316.645
474.35
460.035
460.035
460.035
460.035
460.035
940.127
460.035
317.724
317.724
316.645
460.035
316.645
460.035
316.645
317.724
460.035
303.524
316.645
317.724
317.724
316.645
888.973
316.645
308.467
460.035
317.724
460.035
317.724
460.035
316.645
316.645
460.035
460.035
474.35
460.035
474.35
460.035
316.645
316.645
316.645
474.35
317.724
460.035
316.645
474.35
317.724
460.035
460.035
474.35
460.035
316.645
316.645
474.35
316.645
317.724
474.35
460.035
316.645
317.724
460.035
317.724
317.724
316.645
316.645
316.645
474.35
460.035
474.35
474.35
317.724
316.645
317.724
306.516
316.645
460.035
985.459
474.35
316.645
307.984
316.645
316.645
460.035
316.645
317.724
317.724
317.724
316.645
317.724
460.035
460.035
460.035
317.724
460.035
460.035
316.645
305.492
316.645
302.651
460.035
317.724
460.035
317.724
317.724
460.035
316.645
474.35
474.35
474.35
316.645
474.35
474.35
460.035
474.35
474.35
460.035
474.35
474.35
909.698
316.645
460.035
460.035
317.724
317.724
316.645
316.645
317.724
460.035
460.035
317.724
474.35
474.35
317.724
460.035
474.35
317.724
317.724
316.645
460.035
460.035
316.645
460.035
460.035
316.645
474.35
305.923
316.645
316.645
316.645
460.035
460.035
460.035
316.645
460.035
460.035
460.035
460.035
474.35
460.035
317.724
474.35
460.035
460.035
317.724
460.035
316.645
460.035
897.122
317.724
460.035
474.35
316.645
316.645
474.35
474.35
960.785
316.645
879.729
460.035
852.233
474.35
460.035
474.35
474.35
317.724
316.645
474.35
460.035
316.645
317.724
316.645
474.35
316.645
316.645
317.724
317.724
460.035
474.35
460.035
460.035
317.724
460.035
317.724
460.035
474.35
474.35
316.645
303.075
474.35
460.035
316.645
897.122
317.724
316.645
317.724
316.645
316.645
317.724
460.035
474.35
474.35
460.035
316.645
316.645
474.35
316.645
880.143
460.035
460.035
474.35
460.035
317.724
316.645
460.035
474.35
317.724
317.724
460.035
316.645
460.035
316.645
316.645
316.645
460.035
317.724
316.645
316.645
317.724
474.35
303.009
474.35
474.35
316.645
316.645
474.35
460.035
317.724
316.645
316.645
474.35
474.35
460.035
317.724
317.724
474.35
317.724
316.645
942.932
316.645
317.724
460.035
474.35
474.35
460.035
460.035
460.035
460.035
460.035
317.724
474.35
305.893
474.35
474.35
317.724
460.035
460.035
460.035
474.35
316.645
460.035
474.35
317.724
460.035
873.596
460.035
317.724
316.645
317.724
316.645
474.35
474.35
460.035
474.35
460.035
460.035
474.35
460.035
460.035
316.645
317.724
317.724
330.601
314.899
474.35
474.35
317.724
317.724
474.35
474.35
460.035
316.645
460.035
460.035
460.035
316.645
460.035
316.645
317.724
310.897
316.645
460.035
317.724
460.035
460.035
474.35
317.724
460.035
317.724
307.206
317.724
316.645
460.035
474.35
316.645
316.645
306.516
317.724
317.724
316.645
474.35
316.645
316.645
460.035
978.755
460.035
316.645
316.645
316.645
460.035
460.035
460.035
317.724
460.035
317.724
835.008
344.274
316.645
316.645
316.645
460.035
317.724
474.35
342.064
316.645
317.724
460.035
474.35
474.35
460.035
474.35
474.35
317.724
460.035
474.35
316.645
316.645
317.724
460.035
460.035
474.35
474.35
317.724
460.035
474.35
474.35
317.724
460.035
970.483
316.645
460.035
317.724
474.35
316.645
460.035
474.35
317.724
460.035
316.645
474.35
460.035
316.645
317.724
474.35
460.035
460.035
316.645
460.035
474.35
316.645
474.35
317.724
317.724
1032.21
317.724
316.645
316.645
316.645
319.674
474.35
316.645
317.724
911.92
317.724
460.035
474.35
474.35
460.035
474.35
316.645
474.35
317.724
317.724
317.724
316.645
317.724
316.645
316.645
317.724
474.35
317.724
317.724
474.35
316.645
316.645
317.724
305.492
474.35
316.645
316.645
474.35
317.724
474.35
474.35
316.645
460.035
460.035
316.645
460.035
317.724
319.674
317.724
316.645
316.645
316.645
316.645
316.645
308.738
460.035
474.35
1001.42
317.724
316.645
460.035
316.645
316.645
474.35
316.645
317.724
316.645
316.645
316.645
460.035
317.724
316.645
460.035
316.645
474.35
317.724
316.645
317.724
460.035
474.35
317.724
460.035
460.035
316.645
316.645
316.645
460.035
317.724
303.199
460.035
460.035
316.645
316.645
317.724
474.35
474.35
474.35
316.645
317.724
316.645
474.35
460.035
316.645
316.645
317.724
317.724
316.645
460.035
317.724
474.35
317.724
460.035
460.035
317.724
317.724
460.035
835.008
317.724
474.35
975.115
884.529
902.159
460.035
460.035
474.35
316.645
316.645
474.35
317.724
474.35
317.724
316.645
474.35
316.645
316.645
460.035
316.645
806.098
833.96
460.035
460.035
317.724
317.724
316.645
474.35
316.645
474.35
316.645
316.645
460.035
474.35
460.035
332.279
316.262
317.724
316.645
474.35
316.645
460.035
316.645
460.035
316.645
460.035
460.035
317.724
316.645
474.35
316.645
460.035
317.724
460.035
474.35
474.35
474.35
316.645
460.035
474.35
879.311
474.35
474.35
316.645
460.035
316.645
316.645
317.724
316.645
317.724
316.645
460.035
474.35
870.762
317.724
317.724
460.035
316.645
316.645
316.645
316.645
460.035
460.035
317.724
317.724
316.645
316.645
940.458
303.226
474.35
460.035
460.035
316.645
460.035
305.451
474.35
316.645
460.035
474.35
317.724
460.035
317.724
316.645
317.724
974.6
474.35
317.724
316.645
316.645
316.645
317.724
474.35
317.724
316.645
460.035
316.645
317.724
316.645
474.35
317.724
317.724
474.35
460.035
879.311
316.645
316.645
460.035
460.035
1030.81
474.35
316.645
316.645
460.035
474.35
316.645
474.35
460.035
460.035
316.645
317.724
474.35
940.127
474.35
316.645
474.35
474.35
317.724
317.724
317.724
317.724
460.035
474.35
474.35
474.35
317.724
316.645
317.724
316.645
460.035
460.035
460.035
460.035
474.35
460.035
460.035
321.83
317.724
316.645
316.645
474.35
474.35
460.035
460.035
460.035
316.645
846.79
317.724
317.724
316.645
474.35
474.35
316.645
317.724
316.645
474.35
317.724
460.035
460.035
316.645
316.645
316.645
316.645
317.724
317.724
317.724
317.724
316.645
316.645
460.035
316.645
460.035
317.724
460.035
460.035
460.035
316.645
316.645
987.052
317.724
460.035
474.35
460.035
474.35
316.645
460.035
901.575
316.645
304.812
474.35
460.035
460.035
893.123
316.645
316.645
316.645
474.35
304.759
333.076
316.645
982.582
474.35
316.645
317.724
317.724
317.724
316.645
317.724
474.35
316.645
302.86
317.724
460.035
460.035
460.035
460.035
460.035
316.645
474.35
975.471
460.035
460.035
460.035
317.724
316.645
316.645
460.035
316.645
316.645
316.645
316.645
317.724
460.035
460.035
474.35
316.645
460.035
316.645
474.35
316.645
877.129
869.316
460.035
317.724
474.35
474.35
317.724
474.35
327.872
460.035
316.645
317.724
317.724
986.342
317.724
460.035
474.35
316.645
460.035
316.645
316.645
317.724
317.724
317.724
460.035
317.724
936.027
474.35
310.153
474.35
474.35
907.069
316.645
460.035
460.035
460.035
316.645
474.35
460.035
317.724
316.645
316.645
474.35
460.035
302.996
460.035
460.035
317.724
474.35
460.035
474.35
460.035
474.35
460.035
460.035
323.837
317.724
460.035
474.35
316.645
316.645
474.35
460.035
317.724
316.645
317.724
460.035
460.035
316.645
474.35
460.035
474.35
313.925
316.645
316.645
317.724
317.724
317.724
317.724
316.645
460.035
474.35
884.529
883.81
474.35
460.035
317.724
460.035
317.724
316.645
460.035
316.645
317.724
474.35
474.35
316.262
460.035
460.035
317.724
460.035
460.035
460.035
460.035
474.35
460.035
474.35
460.035
460.035
317.724
474.35
474.35
460.035
474.35
317.724
337.599
317.724
317.724
460.035
474.35
316.645
460.035
460.035
474.35
316.645
316.645
460.035
474.35
317.724
316.645
474.35
460.035
474.35
474.35
460.035
316.645
460.035
474.35
317.724
317.724
460.035
474.35
316.645
316.645
460.035
474.35
460.035
460.035
982.229
316.645
317.724
317.724
317.724
317.724
460.035
316.645
316.645
317.724
460.035
474.35
460.035
474.35
317.724
316.645
316.645
316.645
460.035
460.035
460.035
316.645
460.035
308.467
474.35
316.645
460.035
317.724
316.645
460.035
967.29
460.035
316.645
460.035
460.035
474.35
316.645
460.035
316.645
460.035
474.35
317.724
316.645
474.35
460.035
316.645
317.724
317.724
317.724
316.645
460.035
317.724
316.645
460.035
460.035
316.645
316.645
460.035
460.035
871.96
316.645
316.645
460.035
316.645
317.724
460.035
317.724
306.139
941.605
474.35
460.035
317.724
460.035