<?xml version="1.0"?>
<VTKFile type="PolyData" version="0.1" byte_order="LittleEndian">
  <PolyData>
    <Piece NumberOfPoints="50000" NumberOfVerts="50000" NumberOfLines="0" NumberOfStrips="0" NumberOfPolys="0">
      <Points>
        <DataArray type="Float32" NumberOfComponents="3" format="ascii">
0.43785 0.00889985 0
-0.416525 0.00289635 0
0.424388 -0.00330745 0
0.443121 -0.00276009 0
-0.362526 0.0066149 0
-0.304652 0.00209868 0
0.145662 -0.0287721 0
-0.374463 -0.000268226 0
0.128444 -0.0224925 0
-0.029947 0.00957701 0
0.332927 -0.0142235 0
0.422585 0.00806695 0
-0.244275 0.00745061 0
-0.173694 -0.02711 0
-0.455051 0.00224252 0
0.343302 0.013027 0
-0.0638843 -0.00263976 0
0.439554 0.00136595 0
0.166474 0.00121073 0
-0.41711 0.00381213 0
-0.43695 0.00580757 0
0.380964 0.00699544 0
-0.431369 0.00254319 0
0.428461 -0.000456168 0
0.272949 -0.0143148 0
0.319293 0.0137916 0
-0.427899 -0.00854624 0
0.440048 -0.00416358 0
-0.306532 0.0255187 0
-0.450239 0.00972677 0
-0.339094 0.0129828 0
-0.315381 -0.0183973 0
0.435838 0.000437164 0
0.438809 -0.00158046 0
0.0833221 0.00530265 0
0.446163 -0.00223399 0
0.135265 0.00129603 0
-0.446429 0.00255158 0
-0.418031 -0.00600298 0
-0.464562 -0.00299441 0
0.321862 0.0140553 0
0.340164 0.00637954 0
-0.426435 -0.00280011 0
0.433075 0.00033516 0
0.44888 0.00101604 0
-0.439163 0.00936277 0
0.426695 0.00499162 0
0.218766 -0.0167657 0
0.421307 -5.07315e-05 0
0.431324 -0.00023437 0
0.180824 0.023287 0
-0.430494 -0.001346 0
-0.29954 0.0101176 0
0.425694 0.00279018 0
-0.423872 0.00250003 0
-0.451876 0.00266521 0
0.438406 -0.00181298 0
0.176926 0.0124386 0
0.327932 0.00795733 0
0.452643 -0.00577613 0
0.369691 0.00489325 0
0.443062 0.00250579 0
0.0975025 -0.0356087 0
0.45263 -0.00232364 0
-0.146311 0.0183214 0
-0.422557 0.00142899 0
0.43018 -0.00137049 0
0.442012 -0.00107067 0
0.457234 0.00407397 0
0.316442 0.00074063 0
-0.427622 0.00344105 0
0.429539 0.00374405 0
0.234458 0.00100824 0
0.239839 0.00717564 0
0.204456 0.00535898 0
-0.433798 -0.00286294 0
0.375726 0.0133779 0
-0.411965 0.00461512 0
0.33132 0.00723095 0
-0.450906 0.00167842 0
-0.227668 -0.0371264 0
-0.441694 0.00471312 0
0.406078 0.00525367 0
-0.429305 0.000620278 0
0.452085 -0.0055275 0
-0.430503 0.00353531 0
0.452886 -0.00542281 0
-0.193972 -0.00948189 0
-0.187716 0.0249389 0
-0.434099 -0.00786269 0
0.425646 0.00695776 0
-0.424644 -0.000765088 0
0.427875 -0.00226326 0
-0.29303 0.0211957 0
-0.0445357 -0.0240149 0
-0.382157 0.00563648 0
0.426976 0.00919157 0
-0.437861 0.00346484 0
-0.461858 0.0079229 0
-0.458147 -0.00120374 0
-0.384233 -0.0083367 0
-0.426219 -0.00622349 0
0.455898 -0.000977967 0
-0.185025 -0.0226169 0
0.459125 -0.000832227 0
0.375952 0.0135676 0
0.276386 0.00704556 0
0.0219303 0.00840826 0
0.42204 0.00468354 0
-0.431942 -0.00511677 0
-0.326046 0.0212611 0
-0.438287 0.00336746 0
-0.374208 0.0113474 0
324.232 469.019 0
0.287819 0.00778018 0
-0.431986 0.00379987 0
-0.447939 0.00473094 0
8.33188 11.3978 0
-0.435065 0.00171904 0
-0.022487 -0.0096248 0
0.440212 -0.00178824 0
-0.419658 -0.00419335 0
0.297031 -0.00401047 0
-0.401425 0.00794488 0
0.432133 -0.000978798 0
0.41999 -0.00126072 0
0.13796 0.0257997 0
0.443995 0.00457636 0
-0.389339 -0.00758528 0
0.335052 -0.00119327 0
0.446453 -0.00367472 0
0.442902 -0.000676766 0
-0.46005 0.000724242 0
-0.383842 0.00428559 0
0.453533 -0.00218865 0
0.431058 -0.00134731 0
0.415732 -0.00325386 0
-0.0696053 0.00325351 0
0.347667 -0.0155546 0
0.338213 -0.0130992 0
0.34752 -0.0158023 0
0.412444 0.0102456 0
0.445503 -0.00390667 0
-0.103933 -0.0153104 0
-0.445945 0.00720442 0
0.295954 -0.0246009 0
-0.285887 0.0215975 0
-0.43995 0.00205979 0
-0.314905 -0.0217103 0
-0.441319 0.00389569 0
0.336279 0.00783249 0
0.42816 0.00224924 0
-0.134361 -0.0129632 0
0.348742 -0.0113676 0
0.346808 0.00888688 0
0.424534 0.00400344 0
0.290755 -0.0107039 0
-0.43243 0.00291093 0
-0.186962 -0.0066403 0
0.444233 -0.000639985 0
0.296792 -0.00198543 0
-0.392427 -0.0033477 0
-0.424876 0.00262217 0
-0.441741 0.00269443 0
-0.114611 0.010676 0
0.342242 -0.00706552 0
0.386852 -0.00627466 0
0.391881 0.0037922 0
0.327432 0.00836996 0
-0.181895 0.000463516 0
0.457569 -0.00554986 0
-0.423525 0.0032514 0
-0.100894 -0.00657143 0
0.442162 0.00447911 0
-0.0812625 -0.00392725 0
-0.342268 0.0168994 0
-0.424669 0.00257494 0
-0.258746 -0.0121363 0
-0.430491 -0.00265865 0
-0.432353 -0.00728237 0
0.423952 -0.000331401 0
-0.437338 0.00683371 0
-0.430705 0.00574281 0
0.437648 0.00556608 0
0.427024 -0.00122867 0
0.330288 -0.0189982 0
0.458545 -0.00395634 0
0.453757 0.000234003 0
0.439911 -0.00425291 0
0.0489639 0.0319385 0
0.447424 -0.0042177 0
0.362393 -0.010123 0
-0.292315 -0.0201177 0
0.403381 0.00675101 0
-0.400332 0.00675509 0
0.423852 0.0016536 0
-0.3568 0.0125787 0
-0.38011 0.0055967 0
-0.426483 0.00403507 0
0.429155 0.00512819 0
-0.285197 0.0204086 0
0.452599 0.0027138 0
0.392587 -0.00616436 0
-0.0899532 -0.00789564 0
0.458321 -0.00566016 0
-0.420252 -0.00884305 0
0.0594914 0.0518516 0
0.181579 -0.00743703 0
-0.380755 0.0114593 0
-0.26848 -0.0112358 0
0.419712 0.000387136 0
-0.187497 -0.0229947 0
0.395576 -0.00420908 0
-0.367993 0.0118013 0
-0.252514 -0.0173723 0
-0.441669 0.00643745 0
-0.435782 0.00821313 0
0.435038 -0.000561753 0
-0.448068 -0.00170592 0
-0.0530253 0.022648 0
-0.344804 0.0125739 0
-0.447109 0.00378201 0
-0.41527 -0.00714107 0
0.454504 -0.00345364 0
0.160926 0.0266455 0
-0.424917 0.00313714 0
0.456953 0.000994133 0
0.438286 -0.00115671 0
-0.37783 0.0104344 0
-0.445233 -0.000823327 0
-0.438149 -0.00434426 0
0.426321 0.0043766 0
0.222266 0.0254699 0
-0.0680069 0.0161202 0
-0.453528 0.00464355 0
-0.390585 0.00622546 0
0.335414 -0.0192922 0
-0.343923 -0.00505051 0
-0.433455 0.0034406 0
0.26555 -0.0034126 0
0.448543 -0.000284167 0
-0.397911 -0.00756401 0
-0.438396 0.0034864 0
-0.253954 -0.0154583 0
0.218986 0.0072158 0
0.391713 0.00431564 0
-0.414051 0.00746697 0
0.438663 -0.00115319 0
0.451746 0.00265333 0
0.259033 0.0134324 0
0.270178 0.0045384 0
-0.4123 0.0053145 0
0.423878 -0.00343783 0
-0.19542 -0.0104406 0
-0.398903 0.00866036 0
0.424465 -0.000552185 0
-0.386644 0.00844047 0
0.375827 0.00955523 0
0.162828 0.0252544 0
0.234854 6.13466e-05 0
0.451503 0.000747802 0
-0.412148 0.00512658 0
0.0823099 -0.00919831 0
0.0410427 -0.0154253 0
-0.294127 0.00352242 0
-0.432786 0.000970322 0
-0.426263 0.0029904 0
-0.423214 -0.00170584 0
0.434788 -0.00136886 0
0.431494 -0.00112128 0
0.444459 -0.00128519 0
-0.436638 -0.00330159 0
0.285154 0.00311799 0
0.0233972 0.0133953 0
-0.456086 0.00528749 0
-0.443492 0.00230074 0
0.42228 -0.000678817 0
-0.423882 0.00308163 0
0.419431 0.00684212 0
-0.429997 -0.00177106 0
-0.417089 -0.000348343 0
-0.193408 -0.0251452 0
-0.43686 0.0024889 0
0.412342 -0.00262582 0
-0.371426 0.0114629 0
-0.418366 -0.00369894 0
-0.16626 0.0214208 0
-0.435544 0.00336964 0
-0.442482 0.00394657 0
0.371884 -0.00360486 0
-0.155571 0.00716854 0
0.43419 -0.00127647 0
0.443724 -0.00341805 0
0.282951 0.0148804 0
0.450809 0.00335811 0
0.427834 0.0064877 0
0.449086 0.0043429 0
-0.299685 0.0251336 0
-0.409161 0.00204576 0
-0.45496 0.000816311 0
0.460504 0.000742127 0
-0.0618442 0.00780863 0
0.432758 -0.00217437 0
0.422304 0.00332173 0
0.445645 -0.00106728 0
0.0761783 0.0130381 0
-0.229831 0.0269761 0
0.375307 0.00560556 0
-0.0528903 0.000223175 0
-0.213931 0.0099472 0
-0.357943 0.0123419 0
0.433978 0.00696395 0
-0.316966 0.0155879 0
0.401801 -0.00607291 0
0.331087 -0.00539421 0
-0.453409 0.00663666 0
0.353286 -0.0162118 0
0.455733 -0.00590889 0
0.407522 -0.00352213 0
0.435426 0.00778552 0
-0.442354 0.00565172 0
-0.097271 0.0161354 0
0.444466 0.00201016 0
0.442359 -0.00127948 0
0.204116 0.0267052 0
-0.42207 -0.000663453 0
-0.414177 0.00527709 0
0.455421 0.000286187 0
-0.423436 -0.00347721 0
0.439144 0.00244599 0
0.442309 -0.00290286 0
0.21182 -0.0256698 0
0.423791 0.00357896 0
-0.434481 0.00342269 0
-0.371827 -0.000857783 0
-0.249798 -0.00294978 0
0.0348455 -0.00862692 0
0.0526423 -0.0321248 0
-0.398572 0.00347637 0
0.197035 -0.0284836 0
-0.0467616 0.0438786 0
-0.448569 0.0064375 0
-0.32075 0.0146025 0
-0.43793 0.00466194 0
-0.181762 -0.0149456 0
0.442004 0.00720543 0
-0.311488 0.0164278 0
-0.443206 -0.000216781 0
-71.8281 297.097 0
0.44106 -0.00595144 0
0.439937 -0.0014484 0
-0.361406 0.0151777 0
0.427657 0.00297615 0
0.405765 -0.00132925 0
-641.178 -1146.64 0
0.134805 0.015686 0
-0.438688 0.00388118 0
-0.364938 -0.00286011 0
0.43686 0.00360651 0
4.52643 -9.32538 0
0.41352 0.00519555 0
-0.429319 -0.00666729 0
-0.274325 0.000103899 0
-0.435999 -0.00370676 0
-0.44454 0.00715978 0
0.433572 -0.00132543 0
-0.451574 -0.00171399 0
-0.39156 0.00977966 0
0.340312 0.0134287 0
-0.425532 -8.80559e-05 0
-0.354775 0.0151934 0
-0.393509 0.00874058 0
0.438119 0.00435835 0
0.395021 -0.00778572 0
-0.262189 0.0204976 0
0.450351 -0.00248164 0
-0.43888 -0.00626742 0
-0.408445 -0.00410493 0
-0.443637 0.00123216 0
0.0381742 -0.0340419 0
-0.427097 -0.00593465 0
0.432019 0.00439217 0
-0.435399 0.0038458 0
-0.432983 0.00202153 0
-0.106954 0.0162435 0
0.282974 0.0146765 0
-0.141871 0.0394175 0
0.0930114 0.0222315 0
-0.439274 0.00410749 0
-0.0796784 0.00375994 0
-0.440051 -0.00118278 0
-0.442349 0.00582579 0
0.422296 -0.00654643 0
0.372115 0.01004 0
-0.413935 0.00681527 0
0.392382 0.00507859 0
0.389858 0.00128145 0
-0.422129 0.00318138 0
-0.233228 -0.00784633 0
0.30845 -0.0188942 0
-0.42258 0.000781462 0
0.373529 -0.0098549 0
0.170883 -0.00538599 0
-0.434468 -0.00121173 0
0.405757 -0.000853737 0
0.426848 -0.00271171 0
0.433396 -0.0053208 0
0.441555 -0.0018851 0
0.449087 -0.000158017 0
0.425517 0.00727637 0
-0.437231 0.00287871 0
0.31412 0.0103341 0
-0.361383 -0.00560855 0
0.206329 0.0288752 0
-0.411667 0.00283312 0
-0.147291 -0.0062137 0
-0.341541 0.0126242 0
0.124394 -0.0153765 0
-0.446339 0.00411735 0
0.426149 -0.00134826 0
-0.120542 0.0319732 0
0.152557 0.0167489 0
-0.452348 0.00354826 0
0.42921 0.00185122 0
0.442481 -0.000925244 0
0.422752 0.00919292 0
0.451847 -0.00525685 0
-0.431285 0.00341162 0
-0.444921 0.00261253 0
[...]
      <PointData Scalars="T">
        <DataArray type="Float32" Name="T" format="ascii" NumberOfComponents="1">
316.488
447.548
315.639
315.639
447.548
447.548
315.639
461.237
315.639
447.548
315.639
316.488
447.548
461.237
447.548
316.488
461.237
307.062
304.608
447.548
447.548
316.488
447.548
315.639
315.639
316.488
461.237
315.639
447.548
447.548
447.548
461.237
310.2
315.639
316.488
315.639
304.821
447.548
461.237
461.237
316.488
316.488
461.237
314.626
301.991
447.548
316.488
315.639
315.639
315.639
316.488
461.237
447.548
316.488
447.548
447.548
315.639
316.488
316.488
315.639
316.488
316.488
315.639
315.639
447.548
902.188
315.639
315.639
316.488
304.082
447.548
316.488
302.581
316.488
316.488
461.237
316.488
447.548
316.488
804.735
461.237
447.548
316.488
793.99
315.639
447.548
315.639
461.237
447.548
461.237
316.488
461.237
315.639
447.548
461.237
447.548
316.488
447.548
447.548
461.237
461.237
461.237
315.639
461.237
315.639
316.488
316.488
316.488
316.488
461.237
447.548
447.548
447.548
316.488
316.488
447.548
447.548
316.488
817.044
461.237
315.639
461.237
315.639
447.548
315.639
315.639
316.488
316.488
461.237
315.639
315.639
315.639
949.655
447.548
315.639
315.639
315.639
447.548
315.639
315.639
315.639
316.488
315.639
461.237
447.548
315.639
447.548
447.548
461.237
447.548
316.488
316.488
461.237
315.639
316.488
316.488
315.639
447.548
461.237
315.639
315.639
461.237
447.548
447.548
447.548
315.639
315.639
316.488
316.488
820.644
315.639
447.548
461.237
316.488
461.237
447.548
447.548
461.237
461.237
461.237
315.639
447.548
447.548
316.488
315.639
315.639
315.639
320.4
315.639
316.488
315.639
315.639
461.237
316.488
447.548
318.128
447.548
447.548
447.548
316.488
447.548
316.488
315.639
461.237
315.639
461.237
316.488
315.639
447.548
461.237
313.036
461.237
315.639
447.548
461.237
447.548
447.548
315.639
461.237
447.548
447.548
447.548
461.237
315.639
316.488
447.548
302.276
315.639
447.548
461.237
461.237
316.488
316.488
447.548
447.548
447.548
315.639
461.237
447.548
315.639
315.639
461.237
447.548
461.237
316.488
316.488
447.548
315.639
316.488
316.488
316.488
447.548
315.639
461.237
447.548
315.639
447.548
316.488
316.488
326.481
304.082
447.548
315.639
315.639
447.548
834.641
447.548
461.237
315.639
315.639
315.639
461.237
316.488
316.488
447.548
447.548
315.639
447.548
316.488
461.237
461.237
461.237
447.548
315.639
447.548
461.237
447.548
447.548
447.548
315.639
447.548
315.639
315.639
316.488
316.488
316.488
316.488
447.548
447.548
834.549
304.082
447.548
315.639
316.488
315.639
316.488
447.548
316.488
782.945
447.548
447.548
316.488
447.548
315.639
315.639
447.548
315.639
315.639
315.639
316.488
447.548
447.548
316.488
315.639
316.488
461.237
447.548
317.23
461.237
316.488
315.639
315.639
316.488
447.548
461.237
461.237
315.639
315.639
447.548
315.639
447.548
447.548
447.548
447.548
461.237
316.488
447.548
461.237
447.548
315.639
315.639
447.548
316.488
315.639
461.237
316.488
447.548
461.237
316.488
315.639
316.488
461.237
793.701
461.237
447.548
315.639
461.237
447.548
316.488
461.237
447.548
447.548
316.488
315.639
447.548
315.639
461.237
461.237
904.599
315.639
461.237
316.488
447.548
447.548
447.548
316.488
447.548
316.488
447.548
447.548
461.237
447.548
315.639
316.488
447.548
316.488
304.743
447.548
461.237
315.639
817.667
315.639
315.639
461.237
315.639
315.639
315.639
315.639
315.639
316.488
447.548
316.488
461.237
316.488
447.548
461.237
447.548
315.639
447.548
315.639
447.548
316.488
447.548
332.73
315.639
316.488
315.639
447.548
447.548
315.639
447.548
316.488
447.548
316.488
898.43
461.237
447.548
447.548
316.488
306.339
447.548
315.639
764.306
461.237
461.237
447.548
461.237
316.488
315.639
461.237
316.488
461.237
461.237
315.639
315.639
461.237
447.548
805.716
461.237
307.259
461.237
323.724
447.548
461.237
315.639
316.488
461.237
461.237
447.548
447.548
316.488
809.224
315.639
315.639
316.488
447.548
447.548
447.548
315.639
316.488
827.499
461.237
461.237
447.548
305.054
316.488
315.639
303.179
447.548
316.488
316.488
302.257
447.548
316.488
315.639
461.237
315.639
447.548
447.548
447.548
461.237
461.237
461.237
461.237
461.237
315.639
315.639
315.639
316.488
315.639
316.488
316.488
461.237
316.488
447.548
315.639
316.488
447.548
316.488
447.548
810.232
447.548
802.143
316.488
315.639
316.488
315.639
315.639
315.639
447.548
316.488
316.488
764.931
316.488
775.533
447.548
461.237
315.639
315.639
447.548
447.548
461.237
461.237
461.237
316.488
316.488
316.488
316.488
461.237
447.548
316.488
447.548
312.436
316.488
461.237
447.548
315.639
447.548
316.488
316.488
461.237
316.488
461.237
315.639
872.481
447.548
304.521
315.639
461.237
461.237
859.073
447.548
447.548
316.488
315.639
315.639
305.205
316.488
461.237
805.264
461.237
461.237
447.548
316.488
315.639
447.548
316.488
461.237
302.208
316.488
325.298
447.548
316.488
461.237
904.028
316.488
315.639
461.237
316.488
447.548
315.639
315.639
316.488
315.639
461.237
461.237
447.548
951.892
316.488
461.237
315.639
461.237
461.237
316.488
315.639
461.237
461.237
447.548
447.548
315.639
315.639
447.548
461.237
461.237
316.488
315.639
447.548
447.548
315.639
315.639
316.488
316.488
447.548
461.237
461.237
461.237
461.237
316.488
447.548
316.488
316.488
461.237
447.548
315.639
315.639
461.237
447.548
315.639
461.237
461.237
447.548
315.639
461.237
447.548
316.488
447.548
447.548
315.639
316.488
447.548
316.488
315.639
447.548
316.488
315.639
447.548
447.548
315.639
315.639
315.639
316.488
316.488
461.237
461.237
447.548
447.548
316.488
447.548
461.237
308.897
316.488
447.548
447.548
447.548
315.639
316.488
316.488
316.488
447.548
315.639
315.639
861.723
447.548
316.488
315.639
316.488
316.488
316.488
447.548
316.488
316.488
315.639
447.548
316.488
447.548
315.639
316.488
315.639
316.488
315.639
447.548
316.488
859.313
316.488
447.548
447.548
447.548
315.639
461.237
316.488
447.548
315.639
316.488
461.237
315.639
856.472
461.237
461.237
447.548
447.548
447.548
315.639
315.639
315.639
315.639
315.639
782.945
316.488
447.548
461.237
315.639
315.639
447.548
306.891
447.548
316.488
447.548
447.548
447.548
461.237
461.237
308.674
447.548
316.488
447.548
461.237
447.548
461.237
461.237
315.639
316.488
315.639
447.548
461.237
447.548
447.548
461.237
447.548
461.237
316.488
447.548
461.237
315.639
315.639
315.639
447.548
447.548
461.237
316.488
461.237
304.821
447.548
461.237
461.237
316.488
315.639
316.488
316.434
315.639
447.548
447.548
315.639
447.548
316.488
447.548
316.488
447.548
461.237
316.488
447.548
312.795
447.548
447.548
315.639
304.521
461.237
316.488
315.639
309.573
316.488
447.548
461.237
461.237
316.488
447.548
315.581
316.488
315.639
315.639
461.237
447.548
321.236
447.548
447.548
315.639
315.639
316.488
315.639
447.548
461.237
316.488
447.548
316.488
316.488
447.548
447.548
316.488
923.27
315.639
315.639
447.548
447.548
315.639
308.563
447.548
461.237
461.237
316.488
311.097
804.763
447.548
447.548
801.705
461.237
315.639
447.548
315.639
447.548
315.639
315.639
825.862
315.639
447.548
316.488
315.639
447.548
461.237
316.488
315.639
316.488
316.488
316.488
316.488
447.548
316.488
315.639
461.237
315.639
316.488
447.548
315.639
315.639
316.488
447.548
447.548
461.237
315.639
461.237
315.639
461.237
447.548
447.548
316.488
461.237
461.237
461.237
315.639
849.448
447.548
315.639
316.488
461.237
461.237
315.639
447.548
315.639
315.639
461.237
316.488
461.237
316.488
315.639
316.488
315.639
316.488
316.488
447.548
316.488
315.639
315.639
447.548
315.639
461.237
447.548
461.237
315.639
316.488
447.548
461.237
447.548
315.639
447.548
447.548
315.639
315.639
316.488
316.488
447.548
447.548
315.639
447.548
316.488
447.548
461.237
312.795
461.237
315.639
447.548
461.237
447.548
447.548
447.548
792.037
461.237
447.548
447.548
316.488
447.548
315.639
315.639
315.639
315.639
316.488
447.548
315.639
447.548
316.488
447.548
316.488
316.488
461.237
316.488
447.548
315.639
316.488
315.639
461.237
315.639
447.548
306.891
461.237
461.237
316.488
461.237
447.548
447.548
461.237
315.639
316.488
316.488
316.488
461.237
315.639
461.237
315.639
320.322
316.488
316.488
316.488
315.639
315.639
461.237
316.488
316.488
461.237
447.548
315.639
447.548
302.257
447.548
461.237
447.548
795.832
461.237
447.548
316.488
461.237
316.488
447.548
315.639
447.548
316.488
447.548
447.548
316.488
316.488
447.548
315.639
316.488
315.639
312.436
461.237
447.548
461.237
944.692
315.639
447.548
327.466
447.548
447.548
315.639
315.639
447.548
316.488
315.639
315.639
315.639
447.548
315.639
316.488
447.548
447.548
447.548
461.237
447.548
315.639
447.548
315.639
461.237
331.891
315.639
316.488
447.548
461.237
461.237
447.548
315.639
316.488
461.237
315.639
303.779
461.237
461.237
315.639
447.548
307.062
315.639
316.488
461.237
447.548
447.548
447.548
316.488
880.84
316.488
447.548
447.548
315.639
316.488
316.488
315.639
316.488
461.237
858.627
461.237
447.548
315.639
316.488
316.488
316.488
316.488
316.488
461.237
447.548
447.548
447.548
461.237
447.548
447.548
315.639
315.639
315.639
315.639
315.639
447.548
315.639
447.548
309.364
461.237
447.548
316.488
447.548
931.831
315.639
912.276
315.639
315.639
315.639
315.639
316.488
316.488
315.639
316.488
461.237
302.208
447.548
316.488
316.488
315.639
461.237
315.639
461.237
316.488
316.488
316.488
316.488
447.548
315.639
447.548
316.488
315.639
315.639
893.726
892.089
896.242
315.639
315.639
461.237
316.488
447.548
316.488
315.639
461.237
447.548
764.938
315.639
316.488
447.548
315.639
447.548
316.488
447.548
447.548
764.938
447.548
315.639
315.639
461.237
447.548
447.548
447.548
315.639
461.237
316.488
447.548
316.488
316.488
447.548
447.548
316.488
447.548
315.639
315.639
315.639
447.548
312.974
315.639
461.237
447.548
315.639
447.548
315.639
447.548
447.548
315.639
461.237
461.237
315.639
315.639
316.488
315.639
316.488
461.237
316.488
316.488
447.548
447.548
315.639
447.548
316.488
301.991
809.224
447.548
316.488
894.546
777.466
303.604
315.639
461.237
447.548
315.639
447.548
447.548
461.237
461.237
447.548
315.639
315.639
447.548
447.548
315.639
461.237
315.639
316.488
316.488
447.548
447.548
315.639
777.466
316.488
447.548
316.488
315.639
447.548
315.639
315.639
461.237
447.548
461.237
461.237
447.548
447.548
447.548
447.548
316.488
315.639
315.639
447.548
315.639
447.548
447.548
315.639
447.548
447.548
316.488
447.548
461.237
315.639
461.237
461.237
316.488
447.548
316.488
316.488
315.639
315.639
447.548
316.488
311.171
447.548
447.548
316.488
447.548
447.548
323.855
315.639
315.639
461.237
315.639
447.548
316.296
315.639
869.693
447.548
447.548
315.639
315.639
447.548
447.548
447.548
461.237
316.488
461.237
315.639
461.237
461.237
315.639
316.488
315.639
461.237
316.488
315.639
316.488
820.912
315.639
848.433
461.237
447.548
447.548
793.701
461.237
461.237
316.488
316.488
461.237
447.548
447.548
315.639
447.548
447.548
447.548
461.237
461.237
315.639
315.639
316.488
447.548
316.488
316.488
315.639
461.237
315.639
329.665
316.488
307.338
316.488
447.548
844.901
886.793
447.548
447.548
315.639
461.237
461.237
316.488
447.548
461.237
447.548
803.958
447.548
447.548
461.237
315.639
461.237
461.237
447.548
461.237
447.548
315.639
461.237
447.548
315.639
315.639
315.639
461.237
461.237
447.548
316.488
447.548
461.237
320.302
447.548
447.548
447.548
316.488
447.548
316.488
316.488
315.639
461.237
315.639
311.667
461.237
869.322
315.639
316.488
461.237
447.548
447.548
315.639
447.548
461.237
447.548
316.488
316.488
315.639
316.488
461.237
447.548
447.548
315.639
316.488
447.548
316.488
316.488
461.237
461.237
461.237
316.488
316.488
316.488
447.548
316.488
849.448
316.488
447.548
447.548
447.548
316.488
315.639
315.639
315.639
461.237
315.639
315.639
819.424
447.548
316.488
316.488
315.639
447.548
315.639
447.548
315.639
316.488
315.639
304.86
461.237
447.548
461.237
316.488
315.639
315.639
315.639
447.548
316.488
447.548
316.488
315.639
316.488
461.237
315.639
447.548
316.488
316.488
315.639
461.237
315.639
315.639
315.639
315.639
316.488
858.627
316.488
315.639
447.548
461.237
461.237
777.474
447.548
447.548
783.126
447.548
315.639
315.639
461.237
316.488
447.548
447.548
447.548
315.639
461.237
461.237
316.488
315.639
316.488
316.488
316.488
447.548
316.488
316.488
315.639
316.488
447.548
315.315
836.93
461.237
461.237
315.639
461.237
447.548
447.548
447.548
447.548
447.548
863.122
447.548
316.488
316.488
315.639
447.548
315.639
447.548
315.639
316.488
447.548
302.601
315.639
316.488
316.488
315.639
805.716
315.639
305.871
447.548
316.488
447.548
316.488
447.548
315.639
315.639
447.548
447.548
461.237
447.548
461.237
447.548
315.639
315.639
315.639
461.237
316.488
447.548
315.639
461.237
316.488
447.548
447.548
461.237
447.548
315.639
315.639
461.237
315.639
316.488
461.237
447.548
315.639
316.488
447.548
316.488
316.488
315.639
315.639
315.639
461.237
447.548
461.237
461.237
316.488
315.639
316.488
304.743
315.639
447.548
880.84
461.237
315.639
305.556
315.639
315.639
447.548
315.639
316.488
316.488
316.488
315.639
316.488
447.548
447.548
447.548
316.488
447.548
447.548
315.639
303.811
315.639
302.139
447.548
316.488
447.548
316.488
316.488
447.548
315.639
461.237
461.237
461.237
315.639
461.237
461.237
447.548
461.237
461.237
447.548
461.237
461.237
825.605
315.639
447.548
447.548
316.488
316.488
315.639
315.639
316.488
447.548
447.548
316.488
461.237
461.237
316.488
447.548
461.237
316.488
316.488
315.639
447.548
447.548
315.639
447.548
447.548
315.639
461.237
304.408
315.639
315.639
315.639
447.548
447.548
447.548
315.639
447.548
447.548
447.548
447.548
461.237
447.548
316.488
461.237
447.548
447.548
316.488
447.548
315.639
447.548
810.866
316.488
447.548
461.237
315.639
315.639
461.237
461.237
874.104
315.639
805.077
447.548
777.466
461.237
447.548
461.237
461.237
316.488
315.639
461.237
447.548
315.639
316.488
315.639
461.237
315.639
315.639
316.488
316.488
447.548
461.237
447.548
447.548
316.488
447.548
316.488
447.548
461.237
461.237
315.639
302.18
461.237
447.548
315.639
810.866
316.488
315.639
316.488
315.639
315.639
316.488
447.548
461.237
461.237
447.548
315.639
315.639
461.237
315.639
802.137
447.548
447.548
461.237
447.548
316.488
315.639
447.548
461.237
316.488
316.488
447.548
315.639
447.548
315.639
315.639
315.639
447.548
316.488
315.639
315.639
316.488
461.237
302.128
461.237
461.237
315.639
315.639
461.237
447.548
316.488
315.639
315.639
461.237
461.237
447.548
316.488
316.488
461.237
316.488
315.639
851.754
315.639
316.488
447.548
461.237
461.237
447.548
447.548
447.548
447.548
447.548
316.488
461.237
304.082
461.237
461.237
316.488
447.548
447.548
447.548
461.237
315.639
447.548
461.237
316.488
447.548
797.099
447.548
316.488
315.639
316.488
315.639
461.237
461.237
447.548
461.237
447.548
447.548
461.237
447.548
447.548
315.639
316.488
316.488
321.31
310.2
461.237
461.237
316.488
316.488
461.237
461.237
447.548
315.639
447.548
447.548
447.548
315.639
447.548
315.639
316.488
307.303
315.639
447.548
316.488
447.548
447.548
461.237
316.488
447.548
316.488
305.592
316.488
315.639
447.548
461.237
315.639
315.639
304.821
316.488
316.488
315.639
461.237
315.639
315.639
447.548
884.96
447.548
315.639
315.639
315.639
447.548
447.548
447.548
316.488
447.548
316.488
764.306
331.779
315.639
315.639
315.639
447.548
316.488
461.237
329.665
315.639
316.488
447.548
461.237
461.237
447.548
461.237
461.237
316.488
447.548
461.237
315.639
315.639
316.488
447.548
447.548
461.237
461.237
316.488
447.548
461.237
461.237
316.488
447.548
869.322
315.639
447.548
316.488
461.237
315.639
447.548
461.237
316.488
447.548
315.639
461.237
447.548
315.639
316.488
461.237
447.548
447.548
315.639
447.548
461.237
315.639
461.237
316.488
316.488
916.123
316.488
315.639
315.639
315.639
314.686
461.237
315.639
316.488
851.267
316.488
447.548
461.237
461.237
447.548
461.237
315.639
461.237
316.488
316.488
316.488
315.639
316.488
315.639
315.639
316.488
461.237
316.488
316.488
461.237
315.639
315.639
316.488
303.811
461.237
315.639
315.639
461.237
316.488
461.237
461.237
315.639
447.548
447.548
315.639
447.548
316.488
312.795
316.488
315.639
315.639
315.639
315.639
315.639
306.334
447.548
461.237
903.668
316.488
327.466
447.548
315.639
315.639
461.237
315.639
316.488
315.639
315.639
315.639
447.548
316.488
315.639
447.548
315.639
461.237
316.488
315.639
316.488
447.548
461.237
316.488
447.548
447.548
315.639
315.639
315.639
447.548
316.488
302.318
873.21
447.548
315.639
315.639
316.488
461.237
461.237
461.237
315.639
316.488
315.639
461.237
447.548
315.639
327.917
316.488
316.488
315.639
447.548
316.488
461.237
316.488
447.548
447.548
316.488
316.488
447.548
764.306
316.488
461.237
878.652
806.216
834.641
447.548
447.548
461.237
315.639
315.639
461.237
316.488
461.237
316.488
315.639
461.237
315.639
315.639
447.548
315.639
746.454
765.802
447.548
447.548
316.488
316.488
315.639
461.237
315.639
461.237
315.639
315.639
447.548
461.237
447.548
323.855
311.171
316.488
315.639
461.237
315.639
447.548
315.639
447.548
315.639
447.548
447.548
316.488
315.639
461.237
315.639
447.548
316.488
447.548
461.237
461.237
461.237
315.639
447.548
461.237
801.513
461.237
461.237
315.639
447.548
315.639
315.639
316.488
315.639
316.488
315.639
447.548
461.237
782.945
316.488
316.488
447.548
315.639
315.639
315.639
315.639
447.548
447.548
316.488
316.488
315.639
315.639
856.472
301.991
461.237
447.548
447.548
315.639
447.548
303.779
461.237
315.639
447.548
461.237
316.488
447.548
316.488
315.639
316.488
882.037
461.237
316.488
315.639
315.639
315.639
316.488
461.237
316.488
315.639
447.548
315.639
316.488
315.639
461.237
316.488
316.488
461.237
447.548
764.938
315.639
315.639
447.548
447.548
931.831
461.237
315.639
315.639
447.548
461.237
315.639
461.237
447.548
447.548
315.639
316.488
461.237
850.898
461.237
315.639
461.237
461.237
316.488
316.488
316.488
316.488
447.548
461.237
461.237
461.237
316.488
315.639
316.488
315.639
447.548
447.548
447.548
447.548
461.237
447.548
447.548
316.291
316.488
315.639
315.639
461.237
461.237
447.548
447.548
447.548
315.639
777.466
316.488
316.488
315.639
461.237
461.237
315.639
316.488
315.639
461.237
316.488
447.548
447.548
315.639
315.639
315.639
315.639
316.488
316.488
316.488
316.488
315.639
315.639
447.548
315.639
447.548
316.488
447.548
447.548
447.548
315.639
315.639
892.136
316.488
447.548
461.237
447.548
461.237
315.639
447.548
813.779
315.639
303.313
461.237
447.548
447.548
814.94
315.639
315.639
315.639
461.237
303.464
324.506
315.639
886.835
461.237
315.639
316.488
316.488
316.488
315.639
316.488
461.237
315.639
302.139
316.488
447.548
447.548
447.548
447.548
447.548
315.639
461.237
882.156
447.548
447.548
447.548
316.488
315.639
315.639
447.548
315.639
315.639
315.639
315.639
316.488
447.548
447.548
461.237
315.639
447.548
315.639
461.237
315.639
799.5
800.924
447.548
316.488
461.237
461.237
316.488
461.237
318.701
447.548
315.639
316.488
316.488
890.328
316.488
447.548
461.237
315.639
447.548
315.639
315.639
316.488
316.488
316.488
447.548
316.488
844.901
461.237
307.259
461.237
461.237
827.372
315.639
447.548
447.548
447.548
315.639
461.237
447.548
316.488
315.639
315.639
461.237
447.548
302.241
447.548
447.548
316.488
461.237
447.548
461.237
447.548
461.237
447.548
447.548
315.369
316.488
447.548
461.237
315.639
315.639
461.237
447.548
316.488
326.481
316.488
447.548
447.548
315.639
461.237
447.548
461.237
309.364
315.639
315.639
316.488
316.488
316.488
316.488
315.639
447.548
461.237
804.735
804.583
461.237
447.548
316.488
447.548
316.488
327.922
447.548
315.639
316.488
461.237
461.237
311.171
447.548
447.548
316.488
447.548
447.548
447.548
447.548
461.237
447.548
461.237
447.548
447.548
316.488
461.237
461.237
447.548
461.237
316.488
326.456
316.488
316.488
447.548
461.237
315.639
447.548
447.548
461.237
315.639
315.639
447.548
461.237
316.488
315.639
461.237
447.548
461.237
461.237
447.548
315.639
447.548
461.237
316.488
316.488
447.548
461.237
315.639
315.639
447.548
461.237
447.548
447.548
886.835
315.639
316.488
316.488
316.488
316.488
447.548
315.639
315.639
316.488
447.548
461.237
447.548
461.237