<?xml version="1.0"?>
<VTKFile type="ImageData" version="0.1" byte_order="LittleEndian">
  <ImageData Origin="0 0 0" Spacing="1e-05 1e-05 1e-05" WholeExtent="0 191 0 191 0 0">
    <Piece Extent="0 191 0 191 0 0">
      <CellData Scalars="T">
        <DataArray type="Float32" Name="T" format="ascii" NumberOfComponents="1">
461.237
15000
15000
15000
14999.9
14999.8
14999.7
14999.6
14999.4
14999.1
14998.6
14998
14997.1
14995.9
14994.4
14992.3
14989.5
14985.9
14981.2
14975.2
14967.6
14958
14946
14931.1
14912.7
14890.3
14863.1
14830.3
14791.2
14744.7
14690
14625.9
14551.5
14465.6
14367.1
14254.9
14128
13985.3
13826.1
13649.4
13454.7
13241.5
13009.4
12758.5
12488.8
12200.7
11895.1
11572.6
11234.5
10882.3
10517.5
10142.1
9757.94
9367.33
8972.53
8575.92
8179.92
7786.92
7399.29
7019.31
6649.15
6290.8
5946.09
5616.63
5303.83
5008.84
4732.58
4475.7
4238.65
4021.61
3824.57
3647.29
3489.38
3350.27
3229.27
3125.56
3038.27
2966.43
2909.05
2865.13
2833.65
2813.63
2804.09
2804.13
2812.87
2829.49
2853.26
2883.48
2919.51
2960.79
3006.8
3057.08
3111.22
3168.83
3229.58
3293.15
3359.25
3427.6
3497.94
3570
3643.53
3718.25
3793.89
3870.18
3946.82
4023.5
4099.92
4175.75
4250.66
4324.31
4396.36
4466.47
4534.33
4599.61
4662.01
4721.25
4777.08
4829.27
4877.63
4922
4962.26
4998.33
5030.15
5057.73
5081.08
5100.27
5115.38
5126.51
5133.8
5137.39
5137.43
5134.08
5127.47
5117.77
5105.09
5089.57
5071.29
5050.35
5026.82
5000.75
4972.19
4941.17
4907.73
4871.9
4833.74
4793.31
4750.7
4706.02
4659.43
4611.11
4561.28
4510.21
4458.18
4405.54
4352.64
4299.88
4247.65
4196.38
4146.46
4098.31
4052.32
4008.86
3968.27
3930.85
3896.85
3866.48
3839.92
3817.25
3798.56
3783.82
3773.01
3766
3762.67
3762.8
3766.17
3772.48
3781.4
3792.55
3805.47
3819.58
3834.15
3848.05
3859.54
3865.65
3861.03
3835.83
3771.47
3632.42
3349.91
2787.86
1665.95
315.639
836.412
15000
15000
15000
14999.9
14999.8
14999.7
14999.6
14999.4
14999.1
14998.6
14998
14997.1
14995.9
14994.4
14992.3
14989.5
14985.9
14981.2
14975.2
14967.6
14958
14946
14931.1
14912.8
14890.4
14863.2
14830.4
14791.3
14744.9
14690.2
14626.1
14551.7
14465.8
14367.4
14255.2
14128.4
13985.8
13826.6
13650
13455.3
13242.2
13010.2
12759.3
12489.6
12201.6
11896
11573.6
11235.6
10883.3
10518.6
10143.1
9758.94
9368.29
8973.44
8576.76
8180.67
7787.56
7399.81
7019.69
6649.37
6290.84
5945.95
5616.29
5303.28
5008.08
4731.58
4474.48
4237.19
4019.91
3822.63
3645.12
3486.98
3347.64
3226.42
3122.51
3035.01
2962.97
2905.41
2861.31
2829.67
2809.48
2799.8
2799.69
2808.3
2824.8
2848.45
2878.55
2914.47
2955.64
3001.55
3051.74
3105.78
3163.31
3223.97
3287.46
3353.49
3421.77
3492.05
3564.06
3637.53
3712.22
3787.84
3864.11
3940.74
4017.44
4093.88
4169.74
4244.7
4318.41
4390.53
4460.74
4528.7
4594.09
4656.61
4715.99
4771.96
4824.29
4872.8
4917.33
4957.74
4993.96
5025.94
5053.66
5077.16
5096.48
5111.71
5122.96
5130.35
5134.03
5134.15
5130.85
5124.3
5114.63
5101.98
5086.47
5068.19
5047.25
5023.7
4997.61
4969.02
4937.96
4904.49
4868.62
4830.43
4789.97
4747.33
4702.63
4656.02
4607.69
4557.85
4506.77
4454.76
4402.13
4349.26
4296.52
4244.33
4193.09
4143.21
4095.11
4049.16
4005.75
3965.21
3927.83
3893.88
3863.55
3837.03
3814.4
3795.74
3781.04
3770.24
3763.26
3759.94
3760.08
3763.44
3769.74
3778.65
3789.77
3802.66
3816.74
3831.26
3845.12
3856.58
3862.68
3858.13
3833.2
3769.69
3633.3
3359.51
2828.25
1824.36
327.922
830.057
15000
15000
15000
14999.9
14999.8
14999.7
14999.6
14999.4
14999.1
14998.6
14998
14997.1
14995.9
14994.4
14992.3
14989.5
14985.9
14981.2
14975.3
14967.7
14958.1
14946.1
14931.2
14912.9
14890.5
14863.3
14830.6
14791.5
14745.1
14690.5
14626.5
14552.2
14466.3
14368
14255.9
14129.1
13986.7
13827.6
13651.1
13456.6
13243.5
13011.6
12760.8
12491.3
12203.4
11897.9
11575.5
11237.6
10885.4
10520.6
10145.1
9760.93
9370.21
8975.25
8578.43
8182.16
7788.84
7400.85
7020.45
6649.82
6290.95
5945.69
5615.64
5302.21
5006.57
4729.63
4472.06
4234.3
4016.56
3818.8
3640.82
3482.22
3342.44
3220.78
3116.44
3028.54
2956.12
2898.18
2853.73
2821.75
2801.25
2791.27
2790.88
2799.22
2815.46
2838.87
2868.74
2904.44
2945.4
2991.11
3041.1
3094.96
3152.31
3212.8
3276.14
3342.01
3410.16
3480.31
3552.21
3625.59
3700.2
3775.77
3852.01
3928.63
4005.34
4081.83
4157.76
4232.81
4306.64
4378.91
4449.29
4517.45
4583.06
4645.83
4705.47
4761.72
4814.34
4863.15
4907.98
4948.71
4985.23
5017.51
5045.53
5069.3
5088.89
5104.37
5115.84
5123.44
5127.3
5127.57
5124.4
5117.95
5108.35
5095.75
5080.27
5062
5041.04
5017.46
4991.32
4962.67
4931.56
4898.01
4862.08
4823.82
4783.29
4740.6
4695.85
4649.21
4600.85
4551
4499.93
4447.93
4395.33
4342.5
4289.82
4237.69
4186.52
4136.73
4088.71
4042.86
3999.54
3959.09
3921.81
3887.95
3857.71
3831.27
3808.72
3790.12
3775.47
3764.73
3757.78
3754.48
3754.63
3757.99
3764.27
3773.15
3784.23
3797.05
3811.07
3825.51
3839.28
3850.67
3856.73
3852.26
3827.67
3765.15
3631.36
3363.91
2846.62
1861.68
327.488
830.597
15000
15000
15000
14999.9
14999.8
14999.7
14999.6
14999.4
14999.1
14998.6
14998
14997.1
14996
14994.4
14992.3
14989.5
14985.9
14981.3
14975.3
14967.7
14958.1
14946.2
14931.3
14913
14890.7
14863.5
14830.9
14791.9
14745.5
14690.9
14627.1
14552.8
14467.1
14368.8
14256.9
14130.3
13988
13829
13652.7
13458.4
13245.5
13013.8
12763.1
12493.8
12206.1
11900.6
11578.4
11240.5
10888.4
10523.7
10148.1
9763.89
9373.06
8977.94
8580.92
8184.4
7790.77
7402.42
7021.61
6650.52
6291.15
5945.34
5614.71
5300.67
5004.38
4726.77
4468.52
4230.07
4011.62
3813.17
3634.5
3475.21
3334.76
3212.45
3107.48
3018.97
2945.97
2887.48
2842.5
2810.02
2789.04
2778.61
2777.79
2785.73
2801.59
2824.63
2854.15
2889.52
2930.17
2975.57
3025.27
3078.85
3135.93
3196.17
3259.26
3324.91
3392.85
3462.81
3534.54
3607.79
3682.28
3757.76
3833.95
3910.56
3987.29
4063.83
4139.86
4215.04
4289.05
4361.54
4432.18
4500.63
4566.57
4629.7
4689.72
4746.38
4799.44
4848.7
4893.98
4935.16
4972.14
5004.87
5033.32
5057.52
5077.5
5093.34
5105.16
5113.06
5117.19
5117.69
5114.71
5108.42
5098.94
5086.41
5070.97
5052.71
5031.73
5008.11
4981.91
4953.18
4921.97
4888.33
4852.29
4813.93
4773.32
4730.54
4685.73
4639.03
4590.63
4540.77
4489.71
4437.73
4385.18
4332.41
4279.81
4227.78
4176.72
4127.05
4079.16
4033.45
3990.27
3949.96
3912.81
3879.09
3848.98
3822.66
3800.22
3781.72
3767.16
3756.48
3749.58
3746.32
3746.48
3749.84
3756.09
3764.92
3775.93
3788.67
3802.57
3816.89
3830.53
3841.8
3847.78
3843.33
3819.01
3757.29
3625.36
3361.69
2851
1880.78
327.466
827.499
15000
15000
15000
14999.9
14999.8
14999.7
14999.6
14999.4
14999.1
14998.6
14998
14997.1
14996
14994.4
14992.3
14989.5
14986
14981.3
14975.4
14967.8
14958.2
14946.3
14931.4
14913.2
14890.9
14863.8
14831.2
14792.3
14746
14691.5
14627.8
14553.6
14468.1
14370
14258.2
14131.8
13989.7
13830.9
13654.8
13460.7
13248
13016.6
12766.2
12497
12209.5
11904.2
11582.1
11244.4
10892.3
10527.6
10152.1
9767.77
9376.81
8981.5
8584.22
8187.36
7793.35
7404.53
7023.19
6651.5
6291.48
5944.96
5613.57
5298.72
5001.59
4723.11
4463.96
4224.6
4005.23
3805.86
3626.27
3466.09
3324.75
3201.58
3095.77
3006.46
2932.68
2873.45
2827.77
2794.62
2773.01
2761.97
2760.59
2767.98
2783.34
2805.89
2834.94
2869.87
2910.09
2955.08
3004.39
3057.59
3114.31
3174.21
3236.97
3302.32
3369.98
3439.69
3511.19
3584.24
3658.58
3733.94
3810.05
3886.63
3963.38
4039.99
4116.14
4191.5
4265.73
4338.5
4409.47
4478.3
4544.67
4608.26
4668.79
4725.99
4779.61
4829.45
4875.33
4917.11
4954.7
4988.02
5017.04
5041.79
5062.3
5078.63
5090.9
5099.2
5103.69
5104.5
5101.79
5095.7
5086.38
5073.96
5058.58
5040.34
5019.34
4995.67
4969.38
4940.55
4909.23
4875.46
4839.3
4800.81
4760.08
4717.19
4672.29
4625.53
4577.09
4527.21
4476.15
4424.21
4371.72
4319.04
4266.55
4214.64
4163.73
4114.22
4066.5
4020.97
3977.98
3937.85
3900.89
3867.34
3837.41
3811.24
3788.95
3770.58
3756.13
3745.54
3738.71
3735.49
3735.67
3739.01
3745.23
3753.99
3764.9
3777.52
3791.27
3805.42
3818.89
3829.98
3835.82
3831.32
3807.15
3746.01
3615.53
3355.2
2852.41
1897.83
327.917
817.323
15000
15000
15000
14999.9
14999.9
14999.7
14999.6
14999.4
14999.1
14998.6
14998
14997.1
14996
14994.4
14992.3
14989.6
14986
14981.4
14975.4
14967.9
14958.3
14946.4
14931.6
14913.4
14891.2
14864.2
14831.6
14792.8
14746.6
14692.3
14628.6
14554.7
14469.3
14371.3
14259.8
14133.6
13991.7
13833.2
13657.4
13463.5
13251.1
13019.9
12769.8
12500.9
12213.6
11908.6
11586.7
11249.1
10897.1
10532.5
10156.9
9772.54
9381.42
8985.89
8588.3
8191.05
7796.56
7407.18
7025.21
6652.8
6291.99
5944.61
5612.29
5296.47
4998.31
4718.76
4458.52
4218.04
3997.54
3797.04
3616.32
3455.02
3312.59
3188.35
3081.51
2991.2
2916.46
2856.31
2809.75
2775.77
2753.37
2741.58
2739.48
2746.2
2760.9
2782.84
2811.31
2845.67
2885.36
2929.84
2978.65
3031.37
3087.64
3147.1
3209.46
3274.42
3341.73
3411.11
3482.33
3555.13
3629.26
3704.46
3780.47
3857
3933.76
4010.44
4086.72
4162.29
4236.79
4309.89
4381.26
4450.55
4517.43
4581.59
4642.74
4700.59
4754.9
4805.45
4852.06
4894.59
4932.91
4966.96
4996.7
5022.13
5043.28
5060.23
5073.05
5081.87
5086.8
5088.01
5085.62
5079.79
5070.67
5058.4
5043.1
5024.9
5003.88
4980.15
4953.78
4924.83
4893.37
4859.45
4823.14
4784.5
4743.62
4700.62
4655.61
4608.77
4560.28
4510.38
4459.34
4407.44
4355.03
4302.45
4250.1
4198.35
4147.62
4098.31
4050.8
4005.49
3962.73
3922.83
3886.1
3852.77
3823.04
3797.07
3774.96
3756.74
3742.43
3731.95
3725.2
3722.02
3722.22
3725.55
3731.72
3740.39
3751.18
3763.64
3777.21
3791.15
3804.39
3815.25
3820.89
3816.26
3792.14
3731.41
3602.04
3344.03
2845.1
1897.98
327.6
809.194
15000
15000
15000
14999.9
14999.9
14999.7
14999.6
14999.4
14999.1
14998.6
14998
14997.1
14996
14994.4
14992.3
14989.6
14986
14981.4
14975.5
14968
14958.5
14946.6
14931.8
14913.7
14891.5
14864.5
14832.1
14793.3
14747.3
14693.1
14629.6
14555.8
14470.6
14372.9
14261.6
14135.6
13994
13835.9
13660.3
13466.8
13254.7
13023.8
12774
12505.5
12218.5
11913.7
11592
11254.6
10902.8
10538.2
10162.6
9778.13
9386.85
8991.07
8593.13
8195.44
7800.41
7410.4
7027.69
6654.46
6292.73
5944.35
5610.97
5294
4994.65
4713.86
4452.34
4210.55
3988.73
3786.89
3604.85
3442.24
3298.51
3173.01
3064.94
2973.44
2897.56
2836.31
2788.7
2753.72
2730.36
2717.67
2714.71
2720.61
2734.54
2755.74
2783.5
2817.18
2856.21
2900.07
2948.28
3000.43
3056.15
3115.09
3176.95
3241.44
3308.31
3377.3
3448.16
3520.65
3594.53
3669.53
3745.39
3821.85
3898.6
3975.35
4051.78
4127.56
4202.37
4275.85
4347.66
4417.48
4484.95
4549.77
4611.63
4670.24
4725.36
4776.75
4824.21
4867.6
4906.8
4941.7
4972.28
4998.53
5020.45
5038.12
5051.62
5061.04
5066.52
5068.19
5066.21
5060.7
5051.84
5039.74
5024.56
5006.4
4985.39
4961.6
4935.14
4906.06
4874.45
4840.36
4803.88
4765.07
4724.03
4680.88
4635.76
4588.83
4540.29
4490.37
4439.34
4387.5
4335.18
4282.74
4230.54
4178.99
4128.47
4079.39
4032.14
3987.1
3944.6
3904.97
3868.51
3835.43
3805.95
3780.21
3758.31
3740.28
3726.11
3715.76
3709.1
3705.98
3706.2
3709.5
3715.61
3724.17
3734.82
3747.09
3760.43
3774.11
3787.07
3797.64
3803.01
3798.19
3774.03
3713.58
3585.05
3328.7
2831.24
1872.7
326.481
802.143
15000
15000
15000
14999.9
14999.9
14999.8
14999.6
14999.4
14999.1
14998.6
14998
14997.2
14996
14994.4
14992.4
14989.6
14986.1
14981.5
14975.6
14968.1
14958.6
14946.7
14932
14913.9
14891.8
14864.9
14832.6
14794
14748.1
14694
14630.7
14557.1
14472.1
14374.6
14263.6
14137.9
13996.6
13838.8
13663.6
13470.4
13258.7
13028.2
12778.7
12510.5
12223.9
11919.4
11598
11260.7
10909.1
10544.6
10169
9784.48
9393.04
8996.98
8598.68
8200.51
7804.89
7414.18
7030.66
6656.52
6293.77
5944.28
5609.7
5291.45
4990.75
4708.56
4445.59
4202.32
3978.99
3775.64
3592.09
3427.97
3282.77
3155.81
3046.33
2953.46
2876.25
2813.74
2764.91
2728.76
2704.3
2690.55
2686.58
2691.52
2704.53
2724.86
2751.78
2784.67
2822.94
2866.06
2913.56
2965.03
3020.1
3078.42
3139.69
3203.63
3269.98
3338.5
3408.93
3481.05
3554.61
3629.36
3705.05
3781.4
3858.12
3934.92
4011.5
4087.51
4162.63
4236.52
4308.83
4379.22
4447.36
4512.91
4575.57
4635.04
4691.06
4743.39
4791.83
4836.21
4876.39
4912.29
4943.83
4971
4993.82
5012.33
5026.6
5036.73
5042.85
5045.07
5043.56
5038.44
5029.88
5018.01
5002.97
4984.9
4963.89
4940.06
4913.5
4884.29
4852.52
4818.26
4781.58
4742.59
4701.39
4658.09
4612.84
4565.81
4517.21
4467.28
4416.28
4364.51
4312.3
4260
4207.99
4156.66
4106.39
4057.58
4010.62
3965.88
3923.69
3884.37
3848.21
3815.43
3786.23
3760.75
3739.08
3721.25
3707.27
3697.05
3690.49
3687.43
3687.66
3690.93
3696.95
3705.39
3715.85
3727.9
3740.98
3754.36
3766.98
3777.21
3782.26
3777.17
3752.9
3692.62
3564.72
3309.6
2814.19
1861.74
325.801
797.278
15000
15000
15000
14999.9
14999.9
14999.8
14999.6
14999.4
14999.1
14998.6
14998
14997.2
14996
14994.5
14992.4
14989.7
14986.1
14981.5
14975.7
14968.2
14958.7
14946.9
14932.3
14914.2
14892.2
14865.4
14833.2
14794.6
14748.9
14694.9
14631.8
14558.4
14473.7
14376.5
14265.7
14140.3
13999.4
13841.9
13667.1
13474.3
13263
13032.9
12783.9
12516
12229.7
11925.6
11604.5
11267.5
10916
10551.6
10176.1
9791.51
9399.91
9003.58
8604.89
8206.22
7809.98
7418.52
7034.14
6659.01
6295.16
5944.46
5608.57
5288.93
4986.76
4703.02
4438.46
4193.55
3968.56
3763.52
3578.29
3412.49
3265.63
3137.05
3025.98
2931.56
2852.86
2788.9
2738.69
2701.22
2675.48
2660.53
2655.41
2659.25
2671.21
2690.53
2716.5
2748.46
2785.84
2828.11
2874.8
2925.49
2979.8
3037.41
3097.99
3161.29
3227.04
3295
3364.94
3436.61
3509.79
3584.24
3659.69
3735.89
3812.56
3889.39
3966.09
4042.34
4117.79
4192.1
4264.94
4335.95
4404.8
4471.14
4534.67
4595.08
4652.1
4705.48
4754.99
4800.47
4841.75
4878.74
4911.37
4939.59
4963.41
4982.86
4998.01
5008.95
5015.79
5018.66
5017.69
5013.03
5004.83
4993.23
4978.38
4960.41
4939.44
4915.58
4888.94
4859.6
4827.67
4793.22
4756.36
4717.18
4675.79
4632.33
4586.95
4539.83
4491.18
4441.23
4390.27
4338.58
4286.49
4234.37
4182.57
4131.48
4081.49
4032.99
3986.36
3941.95
3900.1
3861.13
3825.31
3792.86
3763.97
3738.77
3717.36
3699.76
3685.97
3675.9
3669.44
3666.44
3666.67
3669.9
3675.82
3684.1
3694.36
3706.15
3718.92
3731.95
3744.2
3754.03
3758.7
3753.29
3728.85
3668.67
3541.39
3287.75
2795.93
1858.22
325.298
797.099
15000
15000
15000
14999.9
14999.9
14999.8
14999.6
14999.4
14999.1
14998.6
14998
14997.2
14996
14994.5
14992.4
14989.7
14986.2
14981.6
14975.7
14968.3
14958.9
14947.1
14932.5
14914.5
14892.5
14865.8
14833.7
14795.3
14749.7
14695.9
14633
14559.8
14475.3
14378.4
14267.9
14142.9
14002.3
13845.2
13670.8
13478.4
13267.6
13037.9
12789.3
12521.9
12236
11932.2
11611.5
11274.8
10923.5
10559.3
10183.8
9799.15
9407.39
9010.81
8611.73
8212.55
7815.66
7423.42
7038.13
6661.96
6296.96
5944.97
5607.69
5286.56
4982.81
4697.41
4431.12
4184.44
3957.64
3750.78
3563.7
3396.07
3247.39
3117.02
3004.2
2908.06
2827.71
2762.15
2710.39
2671.44
2644.28
2627.97
2621.55
2624.15
2634.92
2653.11
2677.98
2708.9
2745.28
2786.59
2832.35
2882.14
2935.6
2992.38
3052.19
3114.75
3179.81
3247.13
3316.49
3387.65
3460.38
3534.45
3609.62
3685.62
3762.19
3839.03
3915.83
3992.29
4068.06
4142.81
4216.19
4287.85
4357.44
4424.63
4489.09
4550.51
4608.6
4663.1
4713.78
4760.45
4802.94
4841.13
4874.94
4904.32
4929.25
4949.75
4965.89
4977.73
4985.39
4988.97
4988.63
4984.5
4976.72
4965.45
4950.84
4933.01
4912.1
4888.23
4861.52
4832.07
4799.98
4765.36
4728.31
4688.93
4647.36
4603.74
4558.23
4511.02
4462.31
4412.36
4361.44
4309.85
4257.91
4205.98
4154.42
4103.6
4053.92
4005.76
3959.48
3915.44
3873.97
3835.38
3799.92
3767.83
3739.28
3714.39
3693.26
3675.9
3662.31
3652.4
3646.05
3643.09
3643.33
3646.49
3652.29
3660.39
3670.41
3681.91
3694.33
3706.97
3718.78
3728.18
3732.41
3726.64
3701.97
3641.87
3515.19
3263.09
2774
1835.76
324.506
793.701
15000
15000
15000
14999.9
14999.9
14999.8
14999.6
14999.4
14999.1
14998.6
14998
14997.2
14996
14994.5
14992.5
14989.8
14986.2
14981.7
14975.8
14968.4
14959
14947.3
14932.7
14914.8
14892.9
14866.3
14834.3
14796
14750.6
14697
14634.2
14561.3
14477
14380.4
14270.2
14145.5
14005.3
13848.6
13674.6
13482.7
13272.3
13043.1
12795
12528
12242.5
11939.2
11618.8
11282.4
10931.4
10567.3
10192
9807.29
9415.42
9018.58
8619.13
8219.44
7821.9
7428.88
7042.66
6665.42
6299.2
5945.89
5607.15
5284.46
4979.03
4691.89
4423.77
4175.21
3946.48
3737.66
3548.61
3379
3228.36
3096.05
2981.31
2883.32
2801.15
2733.83
2680.38
2639.79
2611.07
2593.24
2585.38
2586.6
2596.05
2612.96
2636.62
2666.37
2701.62
2741.85
2786.57
2835.36
2887.85
2943.71
3002.64
3064.37
3128.65
3195.25
3263.93
3334.5
3406.71
3480.34
3555.16
3630.91
3707.32
3784.12
3860.99
3937.63
4013.71
4088.89
4162.81
4235.13
4305.5
4373.56
4438.99
4501.47
4560.69
4616.39
4668.31
4716.26
4760.05
4799.54
4834.63
4865.26
4891.4
4913.05
4930.27
4943.11
4951.67
4956.07
4956.43
4952.9
4945.61
4934.73
4920.4
4902.76
4881.95
4858.11
4831.35
4801.8
4769.58
4734.78
4697.55
4657.99
4616.24
4572.47
4526.83
4479.52
4430.78
4380.83
4329.97
4278.48
4226.71
4174.99
4123.68
4073.17
4023.83
3976.02
3930.13
3886.49
3845.43
3807.24
3772.19
3740.47
3712.28
3687.73
3666.89
3649.79
3636.4
3626.65
3620.4
3617.5
3617.71
3620.8
3626.46
3634.35
3644.1
3655.26
3667.3
3679.49
3690.83
3699.73
3703.48
3697.3
3672.38
3612.32
3486.24
3235.61
2748.72
1808.85
323.855
792.037
15000
15000
15000
14999.9
14999.9
14999.8
14999.6
14999.4
14999.1
14998.6
14998
14997.2
14996.1
14994.5
14992.5
14989.8
14986.3
14981.7
14975.9
14968.5
14959.2
14947.5
14933
14915.1
14893.3
14866.8
14834.9
14796.7
14751.4
14698
14635.4
14562.7
14478.7
14382.4
14272.5
14148.2
14008.4
13852.1
13678.5
13487.1
13277.1
13048.4
12800.8
12534.3
12249.3
11946.4
11626.4
11290.4
10939.6
10575.8
10200.5
9815.88
9423.9
9026.84
8627.04
8226.85
7828.68
7434.87
7047.71
6669.39
6301.95
5947.27
5607.04
5282.73
4975.58
4686.61
4416.59
4166.05
3935.29
3724.4
3533.27
3361.57
3208.83
3074.44
2957.67
2857.67
2773.54
2704.32
2649.03
2606.66
2576.22
2556.75
2547.3
2547
2554.99
2570.5
2592.81
2621.27
2655.27
2694.29
2737.85
2785.53
2836.96
2891.79
2949.74
3010.54
3073.94
3139.72
3207.65
3277.53
3349.14
3422.26
3496.66
3572.09
3648.29
3724.99
3801.89
3878.68
3955.03
4030.62
4105.07
4178.05
4249.19
4318.15
4384.58
4448.15
4508.55
4565.5
4618.74
4668.03
4713.19
4754.06
4790.52
4822.49
4849.94
4872.84
4891.23
4905.16
4914.72
4920.01
4921.16
4918.3
4911.57
4901.14
4887.15
4869.75
4849.09
4825.31
4798.54
4768.92
4736.57
4701.63
4664.22
4624.49
4582.58
4538.65
4492.9
4445.52
4396.73
4346.81
4296.01
4244.66
4193.06
4141.57
4090.55
4040.35
3991.37
3943.96
3898.48
3855.26
3814.64
3776.88
3742.24
3710.93
3683.12
3658.91
3638.38
3621.54
3608.37
3598.77
3592.62
3589.75
3589.94
3592.93
3598.42
3606.07
3615.52
3626.31
3637.91
3649.62
3660.44
3668.8
3672.02
3665.38
3640.18
3580.18
3454.79
3206.15
2724.95
1807.92
323.724
801.608
15000
15000
15000
14999.9
14999.9
14999.8
14999.6
14999.4
14999.1
14998.6
14998
14997.2
14996.1
14994.5
14992.5
14989.8
14986.3
14981.8
14976
14968.6
14959.3
14947.7
14933.2
14915.4
14893.6
14867.2
14835.4
14797.4
14752.2
14699
14636.6
14564.1
14480.4
14384.3
14274.8
14150.9
14011.4
13855.5
13682.4
13491.4
13282
13053.8
12806.7
12540.7
12256.2
11953.8
11634.2
11298.5
10948.1
10584.5
10209.4
9824.81
9432.76
9035.52
8635.39
8234.74
7835.96
7441.38
7053.3
6673.9
6305.23
5949.18
5607.43
5281.47
4972.56
4681.72
4409.74
4157.15
3924.3
3711.26
3517.94
3344.04
3189.11
3052.53
2933.59
2831.46
2745.24
2673.99
2616.72
2572.43
2540.14
2518.88
2507.72
2505.76
2512.16
2526.13
2546.97
2574
2606.64
2644.34
2686.63
2733.08
2783.32
2837.03
2893.89
2953.66
3016.08
3080.95
3148.04
3217.15
3288.07
3360.59
3434.49
3509.53
3585.45
3661.99
3738.86
3815.75
3892.34
3968.3
4043.26
4116.88
4188.79
4258.64
4326.08
4390.77
4452.38
4510.62
4565.21
4615.91
4662.51
4704.83
4742.74
4776.14
4804.96
4829.2
4848.85
4863.96
4874.6
4880.87
4882.89
4880.78
4874.69
4864.78
4851.19
4834.09
4813.62
4789.95
4763.21
4733.55
4701.11
4666.04
4628.49
4588.6
4546.54
4502.48
4456.62
4409.17
4360.37
4310.47
4259.76
4208.55
4157.15
4105.91
4055.18
4005.33
3956.73
3909.73
3864.68
3821.92
3781.74
3744.44
3710.24
3679.35
3651.92
3628.07
3607.86
3591.29
3578.33
3568.88
3562.83
3559.98
3560.11
3562.98
3568.27
3575.66
3584.77
3595.15
3606.28
3617.46
3627.72
3635.49
3638.15
3631.02
3605.51
3545.6
3421.14
3175.36
2701.88
1803.21
323.389
804.796
15000
15000
15000
14999.9
14999.9
14999.8
14999.6
14999.4
14999.1
14998.7
14998
14997.2
14996.1
14994.6
14992.5
14989.9
14986.4
14981.9
14976.1
14968.7
14959.4
14947.8
14933.4
14915.7
14894
14867.7
14836
14798.1
14753
14700
14637.8
14565.6
14482.1
14386.3
14277.1
14153.5
14014.4
13859
13686.4
13495.8
13286.9
13059.2
12812.6
12547.1
12263.2
11961.2
11642.1
11306.8
10956.8
10593.4
10218.5
9834.01
9441.95
9044.55
8644.14
8243.06
7843.69
7448.38
7059.4
6678.95
6309.07
5951.65
5608.39
5280.78
4970.09
4677.36
4403.38
4148.71
3913.7
3698.45
3502.87
3326.7
3169.47
3030.61
2909.4
2805.03
2716.61
2643.2
2583.83
2537.5
2503.23
2480.05
2467.04
2463.29
2467.97
2480.28
2499.52
2525.01
2556.15
2592.41
2633.31
2678.43
2727.38
2779.84
2835.52
2894.15
2955.5
3019.36
3085.51
3153.76
3223.91
3295.74
3369.06
3443.63
3519.2
3595.51
3672.28
3749.21
3825.98
3902.26
3977.69
4051.92
4124.58
4195.31
4263.76
4329.57
4392.41
4451.96
4507.94
4560.09
4608.17
4652
4691.42
4726.32
4756.61
4782.25
4803.25
4819.62
4831.43
4838.77
4841.73
4840.45
4835.08
4825.75
4812.63
4795.89
4775.67
4752.15
4725.49
4695.83
4663.34
4628.18
4590.5
4550.48
4508.29
4464.12
4418.17
4370.68
4321.87
4272.02
4221.41
4170.35
4119.17
4068.19
4017.78
3968.3
3920.09
3873.52
3828.93
3786.63
3746.93
3710.09
3676.34
3645.88
3618.86
3595.37
3575.47
3559.17
3546.41
3537.11
3531.13
3528.29
3528.36
3531.08
3536.15
3543.24
3551.96
3561.9
3572.51
3583.13
3592.78
3599.92
3601.97
3594.32
3568.5
3508.71
3385.21
3141.88
2672.13
1771.45
322.466
804.763
15000
15000
15000
14999.9
14999.9
14999.8
14999.6
14999.4
14999.1
14998.7
14998.1
14997.2
14996.1
14994.6
14992.6
14989.9
14986.4
14981.9
14976.1
14968.8
14959.6
14948
14933.6
14915.9
14894.3
14868.1
14836.5
14798.7
14753.8
14700.9
14639
14566.9
14483.7
14388.2
14279.4
14156.1
14017.4
13862.4
13690.2
13500.2
13291.7
13064.6
12818.5
12553.6
12270.1
11968.7
11650
11315.2
10965.5
10602.5
10227.8
9843.43
9451.38
9053.88
8653.23
8251.77
7851.86
7455.85
7066.02
6684.55
6313.49
5954.73
5609.98
5280.73
4968.27
4673.64
4397.65
4140.88
3903.68
3686.18
3488.3
3309.79
3150.2
3008.98
2885.42
2778.71
2687.99
2612.32
2550.73
2502.24
2465.87
2440.66
2425.67
2420.01
2422.84
2433.37
2450.88
2474.71
2504.24
2538.95
2578.35
2622.01
2669.56
2720.68
2775.06
2832.46
2892.64
2955.38
3020.5
3087.79
3157.07
3228.14
3300.78
3374.79
3449.93
3525.93
3602.53
3679.43
3756.32
3832.86
3908.7
3983.5
4056.87
4128.46
4197.89
4264.82
4328.88
4389.76
4447.15
4500.77
4550.38
4595.76
4636.75
4673.2
4705.02
4732.15
4754.56
4772.27
4785.33
4793.81
4797.8
4797.44
4792.84
4784.18
4771.6
4755.28
4735.38
4712.07
4685.53
4655.93
4623.43
4588.21
4550.45
4510.32
4468.03
4423.77
4377.76
4330.23
4281.44
4231.65
4181.16
4130.27
4079.31
4028.62
3978.55
3929.44
3881.65
3835.52
3791.39
3749.57
3710.35
3673.99
3640.71
3610.69
3584.07
3560.94
3541.36
3525.32
3512.76
3503.6
3497.68
3494.82
3494.79
3497.34
3502.15
3508.91
3517.22
3526.67
3536.74
3546.74
3555.74
3562.21
3563.62
3555.42
3529.27
3469.59
3347.02
3106.1
2642.09
1758.84
321.812
805.264
15000
15000
15000
14999.9
14999.9
14999.8
14999.6
14999.4
14999.1
14998.7
14998.1
14997.2
14996.1
14994.6
14992.6
14989.9
14986.5
14982
14976.2
14968.9
14959.7
14948.2
14933.8
14916.2
14894.7
14868.5
14837
14799.3
14754.6
14701.9
14640.1
14568.3
14485.3
14390.1
14281.6
14158.6
14020.3
13865.7
13694
13504.4
13296.5
13069.9
12824.3
12560
12277
11976.1
11658
11323.6
10974.4
10611.7
10237.3
9853.02
9461.03
9063.47
8662.62
8260.82
7860.43
7463.77
7073.14
6690.7
6318.5
5958.45
5612.24
5281.39
4967.18
4670.67
4392.68
4133.81
3894.41
3674.64
3474.43
3293.54
3131.55
2987.91
2861.92
2752.81
2659.7
2581.67
2517.78
2467.02
2428.45
2401.09
2384.01
2376.32
2377.19
2385.82
2401.49
2423.53
2451.34
2484.38
2522.17
2564.27
2610.32
2659.98
2712.97
2769.02
2827.93
2889.47
2953.45
3019.69
3088
3158.2
3230.09
3303.45
3378.06
3453.67
3530.02
3606.81
3683.74
3760.47
3836.67
3911.97
3986.01
4058.41
4128.8
4196.81
4262.08
4324.28
4383.08
4438.19
4489.35
4536.32
4578.91
4616.97
4650.37
4679.04
4702.95
4722.07
4736.45
4746.15
4751.25
4751.87
4748.14
4740.21
4728.25
4712.42
4692.89
4669.86
4643.5
4614
4581.54
4546.3
4508.49
4468.3
4425.94
4381.61
4335.56
4288.03
4239.27
4189.56
4139.21
4088.51
4037.79
3987.4
3937.67
3888.95
3841.59
3795.92
3752.27
3710.93
3672.2
3636.32
3603.51
3573.92
3547.71
3524.95
3505.67
3489.88
3477.51
3468.46
3462.58
3459.69
3459.54
3461.88
3466.41
3472.8
3480.67
3489.59
3499.07
3508.42
3516.73
3522.5
3523.23
3514.46
3487.96
3428.36
3306.69
3067.98
2607.62
1724.81
320.822
802.137
15000
15000
15000
14999.9
14999.9
14999.8
14999.6
14999.4
14999.1
14998.7
14998.1
14997.2
14996.1
14994.6
14992.6
14989.9
14986.5
14982
14976.3
14969
14959.8
14948.3
14934
14916.5
14895
14868.9
14837.5
14800
14755.4
14702.8
14641.2
14569.6
14486.9
14391.9
14283.7
14161.1
14023.2
13869
13697.7
13508.7
13301.2
13075.1
12830.1
12566.3
12283.9
11983.6
11665.9
11332.1
10983.2
10620.9
10246.8
9862.74
9470.85
9073.27
8672.27
8270.19
7869.37
7472.13
7080.74
6697.39
6324.12
5962.82
5615.21
5282.8
4966.88
4668.53
4388.57
4127.62
3886.04
3663.99
3461.45
3278.16
3113.74
2967.64
2839.18
2727.6
2632.05
2551.59
2485.3
2432.2
2391.32
2361.71
2342.45
2332.63
2331.42
2338.05
2351.76
2371.91
2397.89
2429.15
2465.21
2505.65
2550.08
2598.18
2649.67
2704.29
2761.82
2822.06
2884.81
2949.9
3017.15
3086.39
3157.42
3230.04
3304.03
3379.16
3455.16
3531.76
3608.64
3685.5
3761.97
3837.71
3912.35
3985.5
4056.8
4125.86
4192.31
4255.81
4316.01
4372.61
4425.33
4473.91
4518.13
4557.83
4592.87
4623.14
4648.58
4669.18
4684.95
4695.94
4702.22
4703.9
4701.11
4693.99
4682.71
4667.45
4648.37
4625.68
4599.56
4570.21
4537.84
4502.64
4464.83
4424.61
4382.21
4337.85
4291.79
4244.27
4195.57
4145.96
4095.76
4045.26
3994.81
3944.72
3895.35
3847.03
3800.1
3754.89
3711.72
3670.88
3632.65
3597.25
3564.9
3535.75
3509.94
3487.53
3468.55
3453
3440.8
3431.84
3425.98
3423.02
3422.73
3424.84
3429.06
3435.04
3442.42
3450.79
3459.63
3468.3
3475.88
3480.91
3480.93
3471.55
3444.68
3385.15
3264.32
3027.71
2571.11
1693.26
320.266
801.705
15000
15000
15000
14999.9
14999.9
14999.8
14999.6
14999.4
14999.1
14998.7
14998.1
14997.2
14996.1
14994.6
14992.6
14990
14986.5
14982.1
14976.4
14969.1
14959.9
14948.5
14934.2
14916.7
14895.3
14869.3
14838
14800.6
14756.1
14703.7
14642.3
14570.9
14488.4
14393.7
14285.8
14163.6
14026.1
13872.3
13701.4
13512.8
13305.9
13080.3
12835.9
12572.6
12290.8
11991
11673.9
11340.5
10992.1
10630.2
10256.4
9872.57
9480.82
9083.27
8682.18
8279.86
7878.66
7480.9
7088.82
6704.62
6330.33
5967.86
5618.91
5285
4967.44
4667.29
4385.41
4122.4
3878.67
3654.38
3449.51
3263.83
3096.97
2948.39
2817.44
2703.36
2605.3
2522.37
2453.62
2398.1
2354.84
2322.9
2301.35
2289.3
2285.93
2290.44
2302.1
2320.26
2344.29
2373.67
2407.91
2446.57
2489.29
2535.74
2585.63
2638.71
2694.77
2753.6
2815.02
2878.87
2944.96
3013.14
3083.21
3155
3228.28
3302.82
3378.39
3454.7
3531.45
3608.33
3685
3761.11
3836.27
3910.12
3982.26
4052.32
4119.91
4184.67
4246.25
4304.33
4358.59
4408.78
4454.66
4496.02
4532.72
4564.63
4591.66
4613.79
4631.01
4643.35
4650.89
4653.7
4651.92
4645.69
4635.17
4620.53
4601.97
4579.68
4553.87
4524.74
4492.51
4457.4
4419.63
4379.42
4337.02
4292.67
4246.63
4199.15
4150.53
4101.04
4051.01
4000.73
3950.54
3900.78
3851.77
3803.85
3757.37
3712.63
3669.94
3629.6
3591.85
3556.94
3525.04
3496.33
3470.9
3448.83
3430.14
3414.81
3402.76
3393.88
3388.01
3384.96
3384.49
3386.34
3390.2
3395.74
3402.61
3410.38
3418.55
3426.5
3433.32
3437.58
3436.86
3426.86
3399.59
3340.13
3220.23
2986.24
2536.16
1676.99
320.16
799.5
15000
15000
15000
14999.9
14999.9
14999.8
14999.6
14999.4
14999.1
14998.7
14998.1
14997.3
14996.1
14994.6
14992.6
14990
14986.6
14982.1
14976.4
14969.2
14960.1
14948.6
14934.4
14917
14895.6
14869.7
14838.5
14801.2
14756.8
14704.6
14643.4
14572.2
14489.9
14395.5
14287.9
14166
14028.9
13875.5
13705.1
13517
13310.6
13085.5
12841.6
12578.9
12297.6
11998.4
11681.8
11348.9
11001
10639.5
10266
9882.51
9490.94
9093.46
8692.32
8289.82
7888.31
7490.07
7097.38
6712.39
6337.16
5973.58
5623.35
5288.02
4968.87
4666.99
4383.25
4118.25
3872.41
3645.91
3438.74
3250.7
3081.41
2930.36
2796.91
2680.31
2579.72
2494.27
2423.02
2365.02
2319.31
2284.97
2261.06
2246.71
2241.07
2243.38
2252.9
2268.96
2290.96
2318.36
2350.68
2387.47
2428.38
2473.08
2521.27
2572.72
2627.21
2684.54
2744.54
2807.04
2871.88
2938.9
3007.93
3078.77
3151.24
3225.11
3300.14
3376.06
3452.59
3529.41
3606.18
3682.56
3758.16
3832.62
3905.54
3976.53
4045.21
4111.19
4174.11
4233.63
4289.43
4341.22
4388.75
4431.79
4470.17
4503.74
4532.41
4556.12
4574.84
4588.59
4597.43
4601.45
4600.74
4595.47
4585.77
4571.84
4553.87
4532.05
4506.61
4477.76
4445.73
4410.76
4373.07
4332.93
4290.57
4246.26
4200.26
4152.86
4104.34
4054.99
4005.14
3955.1
3905.19
3855.75
3807.12
3759.61
3713.57
3669.3
3627.09
3587.24
3549.98
3515.54
3484.09
3455.8
3430.75
3409
3390.58
3375.44
3363.52
3354.69
3348.79
3345.62
3344.94
3346.49
3349.96
3355.04
3361.35
3368.48
3375.96
3383.15
3389.18
3392.63
3391.16
3380.5
3352.84
3293.51
3174.74
2943.95
2501.37
1657.67
320.322
797.552
15000
15000
15000
14999.9
14999.9
14999.8
14999.6
14999.4
14999.1
14998.7
14998.1
14997.3
14996.1
14994.7
14992.7
14990
14986.6
14982.2
14976.5
14969.3
14960.2
14948.8
14934.6
14917.2
14895.9
14870.1
14839
14801.8
14757.6
14705.5
14644.5
14573.5
14491.5
14397.4
14290.1
14168.5
14031.7
13878.8
13708.8
13521.2
13315.3
13090.7
12847.4
12585.2
12304.5
12005.8
11689.8
11357.4
11010
10648.9
10275.8
9892.59
9501.22
9103.85
8702.7
8300.08
7898.29
7499.65
7106.4
6720.69
6344.59
5979.97
5628.55
5291.86
4971.2
4667.67
4382.13
4115.21
3867.33
3638.68
3429.26
3238.89
3067.2
2913.7
2777.75
2658.63
2555.51
2467.52
2393.73
2333.22
2285.03
2248.22
2221.89
2205.16
2197.2
2197.23
2204.52
2218.4
2238.28
2263.62
2293.92
2328.76
2367.76
2410.61
2457.02
2506.75
2559.57
2615.31
2673.8
2734.86
2798.36
2864.12
2932
3001.81
3073.37
3146.46
3220.85
3296.28
3372.48
3449.14
3525.92
3602.47
3678.43
3753.41
3827.03
3898.88
3968.57
4035.7
4099.91
4160.84
4218.14
4271.51
4320.68
4365.4
4405.47
4440.72
4471.05
4496.36
4516.63
4531.84
4542.05
4547.32
4547.76
4543.5
4534.7
4521.54
4504.22
4482.94
4457.93
4429.42