<?xml version="1.0"?>
<VTKFile type="PolyData" version="0.1" byte_order="LittleEndian">
  <PolyData>
    <Piece NumberOfPoints="50000" NumberOfVerts="50000" NumberOfLines="0" NumberOfStrips="0" NumberOfPolys="0">
      <Points>
        <DataArray type="Float32" NumberOfComponents="3" format="ascii">
0.100198 0.00282859 0
-0.0936599 0.00135809 0
0.0967496 2.43991e-05 0
0.101151 0.000162974 0
-0.0811654 0.0022133 0
-0.0680002 0.00119936 0
0.0333116 -0.00567615 0
-0.0843064 0.00062554 0
0.0295856 -0.00429615 0
-0.00583496 0.0028553 0
0.0757402 -0.00244501 0
0.0967757 0.00264955 0
-0.0544192 0.00240937 0
-0.0380635 -0.00532572 0
-0.102253 0.00120817 0
0.0779852 0.00369784 0
-0.0136073 0.000144219 0
0.100196 0.00109214 0
0.0382726 0.00102609 0
-0.0936771 0.00157098 0
-0.098337 0.0020089 0
0.0866463 0.00234195 0
-0.0968363 0.00128436 0
0.0979508 0.000688914 0
0.0622669 -0.00246965 0
0.0725302 0.00386936 0
-0.0956759 -0.00120598 0
0.100567 -0.00014838 0
-0.0680606 0.00646183 0
-0.101278 0.00289202 0
-0.0757688 0.00365577 0
-0.0700441 -0.00340344 0
0.09969 0.000898392 0
0.100092 0.000421044 0
0.019482 0.00194094 0
0.101881 0.000283197 0
0.0312518 0.00104315 0
-0.100609 0.00126228 0
-0.0935268 -0.000639014 0
-0.104126 3.40819e-05 0
0.073093 0.00392807 0
0.0774387 0.00220025 0
-0.0960875 4.89486e-05 0
0.0990626 0.000874865 0
0.102302 0.00101341 0
-0.0987743 0.00280965 0
0.0976954 0.00194036 0
0.04998 -0.00301595 0
0.0962717 0.000775414 0
0.0986012 0.000739532 0
0.0412082 0.00597548 0
-0.0970028 0.000380206 0
-0.066865 0.00300822 0
0.0973976 0.00143092 0
-0.0953667 0.00126181 0
-0.10153 0.0013023 0
0.100239 0.000386947 0
0.0404879 0.00354862 0
0.0746865 0.00255774 0
0.103417 -0.000510445 0
0.0841744 0.00186942 0
0.101369 0.00137798 0
0.0225515 -0.00720191 0
0.103274 0.000260062 0
-0.0321614 0.00485309 0
-0.0951649 0.00101416 0
0.0982017 0.000472905 0
0.100675 0.000531999 0
0.104035 0.001698 0
0.0722048 0.000930867 0
-0.0960708 0.00148555 0
0.0982434 0.00164724 0
0.0542232 0.00104456 0
0.0547199 0.00238977 0
0.0468566 0.00196314 0
-0.0977569 3.38024e-05 0
0.0852345 0.0037734 0
-0.0924872 0.00175584 0
0.0753973 0.00238957 0
-0.101281 0.00108511 0
-0.050004 -0.00754439 0
-0.0993448 0.0017644 0
0.0929692 0.00199441 0
-0.0966998 0.000828912 0
0.103291 -0.000454896 0
-0.0966913 0.00150752 0
0.103396 -0.000436082 0
-0.0428913 -0.00139925 0
-0.0413715 0.00632833 0
-0.0978643 -0.0011094 0
0.0974572 0.0023876 0
-0.0956745 0.000513134 0
0.0975538 0.000263767 0
-0.0651414 0.00549894 0
-0.00911499 -0.00459776 0
-0.0857155 0.00199062 0
0.0977619 0.00289927 0
-0.0984214 0.00148824 0
-0.103903 0.00248616 0
-0.102762 0.000437875 0
-0.085835 -0.00116406 0
-0.0960741 -0.00073418 0
0.10393 0.000564806 0
-0.0406485 -0.00433447 0
0.104662 0.000594136 0
0.0853021 0.00381635 0
0.0637231 0.00241767 0
0.00548863 0.00259764 0
0.0959886 0.00182531 0
-0.0974013 -0.000486177 0
-0.0725757 0.00551213 0
-0.0985962 0.00146251 0
-0.0837058 0.0032829 0
64.2295 92.9112 0
0.0656333 0.00252721 0
-0.0970687 0.00156727 0
-0.100723 0.00176684 0
1.63363 2.23453 0
-0.0980295 0.00107572 0
-0.00416241 -0.00136268 0
0.100607 0.000388716 0
-0.0946481 -0.000281622 0
0.0680406 -0.000111315 0
-0.0899776 0.0025135 0
0.0985912 0.000557168 0
0.0959139 0.000497397 0
0.0315767 0.00652429 0
0.101009 0.00180737 0
-0.0869816 -0.000995282 0
0.0763691 0.000493964 0
0.1019 -4.2302e-05 0
0.100993 0.000627723 0
-0.103307 0.000869316 0
-0.0860456 0.00168338 0
0.103626 0.000299726 0
0.0985331 0.000487446 0
0.0948027 3.5907e-05 0
-0.0148562 0.00146905 0
0.0790093 -0.00274094 0
0.0769839 -0.00219294 0
0.0789775 -0.00279937 0
0.0936666 0.00307683 0
0.10178 -9.12628e-05 0
-0.0225466 -0.00269536 0
-0.100302 0.00232365 0
0.0671425 -0.00476183 0
-0.0635395 0.00558872 0
-0.0988677 0.00116799 0
-0.069805 -0.00413311 0
-0.0992256 0.00157997 0
0.0765582 0.0025292 0
0.0979001 0.00130521 0
-0.0294273 -0.00217565 0
0.0794231 -0.0018038 0
0.0789321 0.00276938 0
0.0972083 0.00171592 0
0.0663411 -0.00165389 0
-0.0973373 0.00135376 0
-0.041357 -0.000761371 0
0.101525 0.000649259 0
0.0678435 0.000315625 0
-0.0884019 -7.85475e-05 0
-0.0956295 0.0012887 0
-0.0994766 0.00130139 0
-0.0250554 0.00313834 0
0.078031 -0.000829856 0
0.0881753 -0.000650569 0
0.0891827 0.00162118 0
0.0752621 0.00271684 0
-0.0402361 0.000838197 0
0.104457 -0.000464414 0
-0.0952845 0.0014357 0
-0.021974 -0.000742432 0
0.101201 0.00182767 0
-0.0174595 -0.000140187 0
-0.0763322 0.00453471 0
-0.0955483 0.00128102 0
-0.0573474 -0.00200456 0
-0.0969824 8.16267e-05 0
-0.0974669 -0.000976608 0
0.0968698 0.000711274 0
-0.0984971 0.00223619 0
-0.0969696 0.00199227 0
0.100146 0.0020672 0
0.09749 0.000504375 0
0.075034 -0.00351557 0
0.10468 -0.000104721 0
0.103407 0.000838045 0
0.10049 -0.000171696 0
0.0115535 0.00782472 0
0.102157 -0.000164638 0
0.0825287 -0.00152214 0
-0.0647784 -0.00378046 0
0.0917616 0.0022951 0
-0.0897565 0.00224362 0
0.096917 0.00116853 0
-0.0797485 0.00356177 0
-0.0852593 0.00198183 0
-0.0957713 0.00162173 0
0.0982536 0.00197202 0
-0.063412 0.00532256 0
0.103063 0.00139297 0
0.0894619 -0.000625224 0
-0.0194794 -0.00103483 0
0.104589 -0.000489547 0
-0.0947386 -0.00133708 0
0.0137101 0.0120914 0
0.0417397 -0.000922176 0
-0.0851912 0.00330936 0
-0.0596384 -0.00179765 0
0.0959408 0.000879036 0
-0.0411959 -0.0044182 0
0.0901892 -0.000182045 0
-0.0823096 0.00338735 0
-0.0559158 -0.00317239 0
-0.0994074 0.00215069 0
-0.0980765 0.00255058 0
0.0994411 0.000665794 0
-0.100469 0.000325634 0
-0.0111662 0.00581182 0
-0.0770424 0.00356117 0
-0.100459 0.00155147 0
-0.0928569 -0.000888471 0
0.103723 7.49007e-06 0
0.0366556 0.00670861 0
-0.0956288 0.00140652 0
0.104062 0.00100263 0
0.100174 0.000531453 0
-0.0845656 0.00307756 0
-0.10038 0.000492361 0
-0.0988159 -0.000313354 0
0.0976058 0.00179869 0
0.0505056 0.00646174 0
-0.0145486 0.00435333 0
-0.102065 0.00174634 0
-0.087574 0.00212402 0
0.0761753 -0.00358078 0
-0.0768122 -0.000427993 0
-0.0973897 0.00148507 0
0.0607288 -8.46428e-06 0
0.102202 0.000714223 0
-0.0897058 -0.00105135 0
-0.0986829 0.00148347 0
-0.056223 -0.00274473 0
0.050099 0.00238185 0
0.0891346 0.00173933 0
-0.0927689 0.00240399 0
0.100227 0.000530143 0
0.102811 0.00137425 0
0.0589912 0.00377938 0
0.0616499 0.00177985 0
-0.092533 0.00191555 0
0.0966038 -4.84873e-06 0
-0.0431691 -0.0016112 0
-0.0893835 0.00267556 0
0.0968915 0.000656045 0
-0.0866248 0.00262685 0
0.0853436 0.00291303 0
0.0371414 0.00640953 0
0.0539131 0.000803078 0
0.102872 0.000954175 0
-0.0925011 0.001873 0
0.0192165 -0.00131366 0
0.00994438 -0.00270602 0
-0.0657053 0.00151933 0
-0.0975149 0.000906303 0
-0.0958131 0.00138112 0
-0.0954202 0.000291191 0
0.099347 0.000480904 0
0.0983918 0.000524515 0
0.101405 0.000491238 0
-0.0984756 -7.70117e-05 0
0.0650974 0.00146325 0
0.00565772 0.00357905 0
-0.1026 0.00189291 0
-0.0996723 0.00122252 0
0.0964613 0.000632232 0
-0.0952752 0.00140294 0
0.0953608 0.00231453 0
-0.0968632 0.000284508 0
-0.0935469 0.000625201 0
-0.0425463 -0.00490022 0
-0.0983144 0.00125865 0
0.0940586 0.000179321 0
-0.0830915 0.00331075 0
-0.0936972 -0.000121331 0
-0.0366276 0.0055472 0
-0.0981363 0.00144929 0
-0.0994884 0.00159141 0
0.0849037 -4.58649e-05 0
-0.0344017 0.00234957 0
0.0991778 0.000498484 0
0.10132 1.57299e-05 0
0.0643931 0.0041101 0
0.102633 0.00153841 0
0.0979213 0.00227625 0
0.102187 0.00175941 0
-0.0665326 0.00637692 0
-0.0920703 0.00115662 0
-0.102121 0.00089304 0
0.104925 0.000949594 0
-0.0131609 0.0025005 0
0.0987805 0.000295108 0
0.0966026 0.00155219 0
0.101646 0.000542232 0
0.0178263 0.00367586 0
-0.0507928 0.00678474 0
0.0854283 0.00203046 0
-0.0111386 0.000785332 0
-0.0475294 0.00297338 0
-0.080019 0.00350972 0
0.0993595 0.00239743 0
-0.0706807 0.00424208 0
0.0915454 -0.000604477 0
0.0755659 -0.000452785 0
-0.102028 0.00219651 0
0.080265 -0.00289098 0
0.104003 -0.000545459 0
0.0929461 -2.47548e-05 0
0.0996456 0.00257327 0
-0.0995208 0.0019748 0
-0.0211462 0.00436651 0
0.101197 0.00122937 0
0.100908 0.000496209 0
0.0464409 0.00674117 0
-0.0951246 0.000532601 0
-0.0929629 0.00190719 0
0.103787 0.000849173 0
-0.0948373 -6.9908e-05 0
0.100459 0.00135681 0
0.101001 0.00013186 0
0.0482351 -0.00499983 0
0.0964623 0.00157995 0
-0.0976752 0.00147327 0
-0.083174 0.000528058 0
-0.0556302 6.24062e-05 0
0.00852989 -0.00117564 0
0.0124243 -0.00635234 0
-0.0895383 0.00149605 0
0.0448778 -0.00562459 0
-0.00962328 0.0104315 0
-0.101013 0.00214778 0
-0.0715862 0.00402123 0
-0.0984898 0.00175234 0
-0.0400585 -0.00262208 0
0.101138 0.00244207 0
-0.0694228 0.00443062 0
-0.0999147 0.000631104 0
-12.4456 51.4817 0
0.100797 -0.000548456 0
0.100361 0.000459055 0
-0.0807075 0.00414755 0
0.0978433 0.00147349 0
0.0926456 0.000475271 0
-117.883 -210.815 0
0.0309804 0.00427225 0
-0.0988168 0.00156734 0
-0.0815868 7.73454e-05 0
0.0994747 0.00159536 0
0.878079 -1.80655 0
0.094062 0.00194074 0
-0.0968207 -0.000846951 0
-0.0611624 0.000749948 0
-0.0983309 -0.000168079 0
-0.100103 0.00231102 0
0.0988264 0.000476828 0
-0.101266 0.000321088 0
-0.0876773 0.00292856 0
0.0773055 0.0037878 0
-0.095496 0.000683954 0
-0.0792201 0.00415213 0
-0.0881652 0.00269416 0
0.0996974 0.00175822 0
0.0899652 -0.000992623 0
-0.0582117 0.00534047 0
0.102758 0.000225227 0
-0.0989458 -0.000745473 0
-0.0913764 -0.000205505 0
-0.0999436 0.000967015 0
0.00921746 -0.00676965 0
-0.0963027 -0.000672032 0
0.0988078 0.00179523 0
-0.0977656 0.00157846 0
-0.0975309 0.00114639 0
-0.0233055 0.00438517 0
0.0643727 0.0040609 0
-0.0309595 0.00954198 0
0.0215268 0.00573075 0
-0.0988785 0.0016239 0
-0.0171777 0.00158785 0
-0.0991704 0.000415775 0
-0.099565 0.00201232 0
0.0963848 -0.000686598 0
0.0845131 0.00302316 0
-0.0928112 0.00225612 0
0.0898712 0.00195515 0
0.0888173 0.0010571 0
-0.0948789 0.00142639 0
-0.0517977 -0.00103674 0
0.0701196 -0.00349355 0
-0.0952415 0.000859978 0
0.0850442 -0.00146044 0
0.0393693 -0.000460137 0
-0.0974221 0.000431836 0
0.0924422 0.000577749 0
0.0972225 0.000159335 0
0.0990604 -0.000409732 0
0.100808 0.000359504 0
0.102372 0.000749478 0
[...]
      <PointData Scalars="T">
        <DataArray type="Float32" Name="T" format="ascii" NumberOfComponents="1">
310.98
327.995
302.544
302.148
345.84
335.756
313.108
341.178
313.108
345.84
313.108
310.98
345.84
344.018
336.061
310.98
355.322
300.576
300.441
327.89
345.84
310.98
331.143
300.581
313.108
310.98
344.018
313.108
345.84
345.84
345.84
344.018
300.434
300.593
310.98
300.917
300.591
332.361
344.018
350.998
310.98
310.98
350.734
300.44
300.432
345.84
310.98
313.108
300.523
300.591
310.98
345.118
345.84
300.756
332.361
330.784
300.652
310.98
310.98
313.108
301.923
300.687
313.108
300.97
345.84
341.397
300.539
300.515
301.775
300.432
325.313
301.452
300.591
310.98
310.98
350.998
310.98
333.718
310.98
338.43
344.018
334.205
310.98
336.053
313.108
325.468
313.108
344.018
345.84
344.018
310.98
342.149
300.97
345.84
344.018
345.84
310.98
325.313
345.84
345.336
344.018
344.018
300.512
344.018
300.515
310.98
310.98
310.98
301.893
344.018
345.84
325.433
345.84
310.98
310.98
327.503
334.205
310.98
338.526
344.018
300.652
344.018
313.108
345.84
300.513
300.527
310.98
301.903
344.018
300.527
313.108
300.526
338.921
331.229
300.886
300.532
302.57
325.433
313.108
313.108
313.108
310.98
313.108
344.018
345.84
313.108
345.84
336.1
344.018
327.89
310.98
300.601
344.018
313.108
310.98
301.863
313.108
327.995
344.018
300.538
300.823
344.018
331.143
330.784
345.84
313.108
313.108
301.363
310.98
336.693
313.108
325.895
344.018
301.893
344.018
345.84
331.143
344.018
352.114
344.018
300.603
345.84
345.84
310.98
300.522
313.108
313.108
300.452
313.108
310.98
313.108
313.108
344.018
310.98
345.84
300.541
345.84
345.84
329.541
310.98
345.84
300.713
313.108
344.018
313.108
344.018
310.98
313.108
345.84
344.018
300.44
344.018
313.108
345.84
344.018
345.84
345.84
300.556
345.954
345.84
345.84
327.173
344.018
313.108
310.98
326.197
300.426
300.515
345.84
343.185
344.018
301.908
310.98
345.84
333.118
345.84
313.108
344.018
325.313
313.108
300.603
344.018
325.313
344.018
310.98
301.917
345.84
300.515
300.687
310.98
301.932
345.84
313.108
344.018
345.84
300.547
345.84
310.98
310.98
300.474
300.433
336.989
313.108
313.108
325.654
339.542
326.706
346.627
300.532
300.517
300.527
344.018
300.786
310.98
336.749
335.635
300.53
326.197
310.98
346.953
341.178
344.018
333.175
301.918
345.84
344.018
345.84
325.691
328.551
313.108
345.84
300.527
302.514
310.98
300.91
310.98
301.927
345.84
336.367
341.074
300.432
345.84
300.886
300.995
300.515
310.98
345.84
310.98
335.878
345.84
345.84
310.98
345.84
313.108
313.108
345.84
313.108
313.108
313.108
310.98
345.84
345.84
300.557
300.527
310.98
341.239
336.833
300.449
344.018
300.664
302.707
313.108
301.099
325.359
341.56
350.482
313.108
313.108
325.32
313.108
345.84
345.84
345.84
333.718
344.018
310.98
345.84
341.618
345.84
313.108
300.558
345.84
300.797
300.539
344.018
310.98
327.503
350.934
301.185
313.108
310.98
344.018
338.274
344.018
345.84
300.539
345.954
345.84
310.98
340.663
345.84
345.84
301.927
313.108
345.84
301.15
344.018
344.018
343.636
313.108
344.018
301.908
327.89
336.876
345.84
310.98
345.84
310.98
329.541
328.219
345.975
345.84
313.108
310.98
345.84
310.98
300.611
325.967
344.018
313.108
338.744
313.108
313.108
345.336
300.511
302.338
313.108
300.713
300.578
310.98
327.995
310.98
344.018
310.98
328.772
344.018
345.84
313.108
329.723
300.539
345.84
310.98
325.468
300.554
300.511
310.98
313.108
325.359
330.935
300.652
345.84
310.98
330.784
301.895
343.636
344.018
335.043
345.84
300.859
300.576
345.84
313.108
335.951
343.531
344.018
337.143
344.018
310.98
313.108
348.754
300.64
344.018
346.369
313.108
313.108
349.859
331.229
335.808
344.018
300.432
344.018
300.463
345.84
344.018
300.512
310.98
344.018
344.018
345.84
345.84
310.98
335.48
313.108
300.532
301.775
345.84
345.84
329.357
300.567
310.98
339.049
349.859
344.018
330.935
300.587
302.088
300.515
300.427
345.84
310.98
310.98
300.432
326.706
310.98
313.108
341.56
300.856
326.411
331.476
345.84
344.018
343.531
344.018
344.018
344.018
313.108
313.108
313.108
310.98
313.108
310.98
310.98
344.018
310.98
329.742
302.542
310.98
345.84
301.895
336.966
338.526
345.84
339.5
310.98
313.108
310.98
300.57
300.795
313.108
345.84
310.98
301.927
338.274
301.908
335.878
325.468
344.018
313.108
300.693
337.229
345.84
344.018
345.268
344.018
310.98
310.98
300.561
310.98
344.018
331.793
301.901
332.581
300.437
310.98
344.018
325.313
313.108
345.84
300.842
310.98
344.018
310.98
344.018
300.606
343.636
345.84
300.613
313.108
344.018
351.582
338.921
327.995
345.84
310.98
313.108
300.593
300.433
310.98
344.018
339.049
341.194
344.018
325.654
301.099
313.108
345.84
310.98
346.394
300.432
301.901
300.474
331.41
310.98
344.018
341.658
310.98
313.108
344.018
310.98
325.654
313.108
302.8
310.98
300.515
344.018
351.401
345.84
339.542
310.98
344.018
313.108
345.118
344.018
310.98
300.53
350.482
349.859
345.84
345.84
300.713
313.108
345.84
341.178
344.018
310.98
313.108
325.895
345.84
301.254
313.108
310.98
310.98
331.41
344.018
344.018
344.018
344.018
301.931
345.84
310.98
300.703
344.018
345.84
300.53
313.108
344.018
329.723
313.108
344.018
344.018
326.706
300.856
344.018
334.076
310.98
345.84
330.377
313.108
310.98
325.967
310.98
313.108
335.855
310.98
300.517
328.551
345.84
313.108
300.511
300.53
310.98
301.509
341.725
341.56
345.84
345.84
310.98
325.977
344.018
300.432
300.995
333.718
334.076
345.84
300.539
302.027
310.98
310.98
345.84
300.512
302.57
338.486
330.67
300.713
300.547
310.98
310.98
300.64
345.84
310.98
300.775
302.927
325.359
310.98
345.84
313.108
300.842
313.108
301.901
313.108
345.84
300.557
338.761
301.573
326.197
345.84
345.84
313.108
344.018
310.98
325.359
300.526
310.98
344.018
313.108
338.598
345.954
341.342
334.076
345.84
345.84
300.522
302.853
313.108
300.526
313.108
339.049
310.98
325.691
341.194
301.254
313.108
327.143
300.432
331.229
310.98
345.84
345.84
345.84
344.018
346.953
300.434
345.84
310.98
345.84
344.018
336.833
346.953
344.018
300.547
310.98
302.707
345.84
344.018
345.84
335.627
344.018
345.84
350.734
310.98
325.967
344.018
313.108
302.148
300.515
334.076
335.99
344.018
301.863
346.328
300.576
329.357
344.018
346.394
310.98
300.526
310.98
300.541
300.713
345.84
345.84
301.15
345.84
310.98
336.121
301.917
330.935
344.018
300.775
325.468
300.549
336.989
332.259
313.108
300.598
346.627
310.98
313.108
300.566
310.98
345.84
344.018
341.725
310.98
336.438
300.566
310.98
301.15
313.108
341.871
330.67
300.541
345.84
345.84
313.108
300.526
300.91
300.57
336.833
344.018
310.98
335.043
300.589
301.249
325.691
345.84
300.735
338.921
313.108
300.517
325.977
325.32
302.707
300.434
345.84
344.018
344.018
310.98
300.545
337.294
345.84
330.784
338.274
344.018
300.856
345.84
300.636
336.061
300.741
300.523
336.053
300.606
334.076
301.927
300.547
345.84
344.018
300.726
313.108
310.98
310.98
310.98
310.98
325.468
310.98
313.108
341.116
313.108
310.98
332.581
300.567
313.108
310.98
336.833
334.205
344.018
313.108
344.018
300.558
344.018
331.41
345.84
310.98
344.018
340.973
344.018
313.108
343.636
331.476
313.108
300.64
344.018
344.018
313.108
345.84
302.965
313.108
345.268
310.98
344.018
300.562
313.108
310.98
313.108
310.98
310.98
345.84
300.601
313.108
300.593
345.84
300.532
344.018
345.84
344.018
313.108
301.951
327.995
344.018
345.84
313.108
331.793
345.84
300.603
300.517
310.98
301.099
325.977
334.076
313.108
345.84
310.98
345.84
344.018
300.541
344.018
302.777
345.84
354.575
345.84
334.205
345.84
335.951
344.018
345.84
345.84
310.98
338.761
313.108
313.108
313.108
302.965
301.923
345.84
300.538
325.977
310.98
325.359
301.249
300.565
355.322
310.98
345.84
301.082
310.98
313.108
345.485
300.582
345.84
300.432
344.018
344.018
310.98
344.018
328.219
337.143
344.018
313.108
310.98
310.98
310.98
344.018
313.108
344.661
313.108
300.474
310.98
310.98
300.744
313.108
300.547
344.018
310.98
300.786
346.953
345.84
302.57
330.67
300.426
345.84
344.018
326.855
335.48
344.018
325.895
300.664
344.018
310.98
334.811
313.108
345.84
310.98
345.84
345.84
301.31
310.98
345.84
313.108
310.98
300.591
300.437
344.018
345.84
341.087
341.737
313.108
336.833
300.502
345.84
345.84
300.998
301.032
332.581
310.98
313.108
300.591
313.108
327.503
300.6
310.98
345.84
345.84
345.84
356.304
345.84
313.108
325.691
313.108
344.018
300.551
313.108
310.98
325.691
344.018
344.018
336.768
313.108
310.98
344.018
300.943
300.613
344.018
344.018
300.856
327.173
300.566
313.108
302.088
344.018
345.84
345.84
332.259
310.98
341.658
300.859
335.627
345.84
300.517
310.98
310.98
313.108
301.041
341.178
338.698
344.018
326.197
300.515
300.676
302.088
310.98
310.98
310.98
344.018
330.305
345.84
345.84
341.56
325.967
326.706
300.486
313.108
313.108
300.512
300.693
326.197
313.108
329.723
300.437
348.768
345.84
310.98
332.361
338.486
300.532
341.974
313.108
302.57
313.108
300.856
310.98
301.409
313.108
310.98
348.683
300.535
335.855
310.98
310.98
300.591
345.485
313.108
346.627
310.98
310.98
310.98
310.98
345.84
313.108
345.84
310.98
300.6
313.108
340.68
339.502
338.921
313.108
313.108
344.018
310.98
330.741
300.713
300.547
344.018
345.84
343.925
313.108
302.088
329.541
300.527
345.84
300.703
331.476
325.433
340.319
345.84
313.108
313.108
348.309
345.84
345.84
345.84
313.108
344.018
310.98
337.238
310.98
300.735
345.84
328.772
310.98
345.84
300.523
313.108
313.108
345.84
300.44
313.108
344.018
345.84
313.108
331.793
300.517
345.84
325.32
300.519
344.018
344.018
300.567
300.581
301.249
301.489
310.98
345.975
300.614
310.98
345.84
345.84
313.108
326.706
310.98
300.441
336.376
327.995
310.98
341.589
337.726
300.611
313.108
341.342
336.061
300.621
329.723
338.761
348.372
345.336
345.84
302.57
313.108
345.84
328.551
313.108
344.018
302.8
310.98
310.98
345.84
334.205
302.544
336.693
310.98
331.01
310.98
313.108
335.627
300.693
300.823
344.018
326.079
344.018
344.018
325.559
345.84
328.551
332.259
310.98
300.547
313.108
331.01
313.108
345.84
327.143
300.538
325.895
325.313
301.138
327.143
346.627
302.711
344.018
348.768
310.98
329.541
310.98
300.58
300.713
313.108
345.84
300.744
300.576
326.489
325.32
310.98
345.84
345.84
300.463
300.593
300.511
344.018
300.527
345.84
300.541
313.108
338.925
325.895
326.197
301.352
300.556
345.84
345.84
331.476
344.018
300.58
344.018
313.108
344.018
344.018
300.6
310.98
313.108
344.018
310.98
313.108
310.98
336.376
300.606
340.319
341.178
345.84
328.772
339.049
349.05
344.018
310.98
300.827
344.018
331.999
345.84
313.108
345.84
345.84
325.313
344.018
344.018
313.108
313.108
301.363
325.433
310.98
310.98
300.519
350.934
313.108
300.545
310.98
300.434
310.98
345.84
336.935
343.925
345.84
335.635
300.547
344.018
344.018
310.98
331.999
344.018
345.84
335.808
331.41
325.32
341.358
313.108
344.018
349.05
345.84
344.018
327.89
313.108
344.018
345.84
313.108
301.032
313.108
344.018
344.018
345.84
310.98
325.967
345.485
300.545
345.84
325.32
345.84
301.923
345.84
310.98
310.98
313.108
348.683
313.108
300.549
344.018
341.737
302.637
310.98
344.018
345.84
345.84
300.917
336.438
344.661
345.84
301.984
310.98
313.108
310.98
344.018
345.84
325.967
313.108
310.98
345.84
310.98
302.027
341.087
344.018
348.768
310.98
310.98
310.98
331.143
310.98
343.925
310.98
345.84
328.219
336.367
300.775
300.526
313.108
302.148
346.369
313.108
313.108
335.878
327.143
310.98
301.863
300.578
345.84
313.108
325.895
300.772
301.363
313.108
300.591
341.725
326.489
341.618
310.98
313.108
313.108
300.512
345.84
310.98
325.468
300.589
300.592
310.98
344.018
300.502
327.595
310.98
310.98
313.108
341.389
313.108
313.108
313.108
300.856
301.573
338.526
310.98
302.925
345.84
344.018
341.779
335.878
345.84
345.84
335.48
345.84
301.082
300.519
344.018
310.98
345.84
336.061
331.41
313.108
344.018
344.018
300.726
302.542
310.98
310.98
310.98
336.367
300.687
301.903
313.108
310.98
326.855
300.444
338.526
344.018
344.018
313.108
344.018
345.84
345.84
345.84
345.84
345.84
338.744
345.84
300.676
300.91
300.823
328.772
313.108
330.784
300.823
310.98
332.259
300.591
300.6
310.98
301.775
313.108
336.352
313.108
300.432
345.84
310.98
335.756
310.98
345.84
313.108
300.547
345.84
345.84
344.018
345.84
344.018
345.84
313.108
313.108
313.108
344.018
310.98
345.84
300.517
346.369
310.98
326.197
345.84
344.018
326.489
300.592
313.108
348.372
313.108
301.452
351.086
345.84
300.6
301.908
330.305
301.65
301.931
313.108
300.53
313.108
344.018
345.84
344.018
344.018
310.98
313.108
310.98
300.576
301.082
345.84
341.128
341.178
300.741
300.432
300.513
313.108
332.581
313.108
310.98
300.91
310.98
300.567
310.98
345.84
330.305
345.84
310.98
328.772
345.84
300.518
300.432
300.592
300.426
336.833
310.98
330.305
301.908
310.98
345.84
313.108
344.018
344.018
344.018
300.517
344.018
344.018
335.756
344.018
342.597
325.313
344.018
347.286
336.352
313.108
345.84
336.768
310.98
302.088
313.108
300.522
310.98
327.995
345.84
310.98
344.018
344.018
310.98
331.41
356.304
300.557
310.98
300.582
345.84
328.551
313.108
345.84
345.84
301.689
343.783
300.441
300.545
313.108
300.519
345.84
330.027
345.84
302.148
328.772
345.84
345.84
337.266
350.482
345.84
310.98
344.018
345.84
327.143
310.98
345.84
300.636
345.84
336.693
310.98
326.079
344.018
300.582
300.517
344.661
341.116
339.794
300.567
336.053
326.197
338.744
344.018
345.84
344.018
344.018
301.863
301.918
344.018
345.84
313.108
300.827
313.108
344.018
302.338
313.108
301.185
301.31
345.84
344.018
345.84
328.772
300.562
334.076
310.98
331.41
344.018
344.018
313.108
300.426
355.686
345.84
300.539
336.376
301.895
313.108
310.98
313.108
313.108
310.98
332.361
344.018
346.207
345.84
302.544
300.538
348.754
300.6
339.5
325.977
345.84
344.018
335.499
300.713
300.693
327.995
344.018
300.614
310.98
326.855
313.108
328.219
300.515
313.108
300.515
345.84
310.98
313.108
300.713
301.893
345.704
300.426
344.018
344.018
300.795
300.511
346.207
335.635
310.98
301.15
313.108
344.018
344.018
326.079
300.687
300.766
344.018
310.98
302.148
340.68
313.108
310.98
345.84
355.686
341.342
332.259
345.84
338.191
345.84
345.84
300.676
344.018
300.43
355.686
347.711
302.027
336.367
345.84
331.793
344.018
313.108
336.833
344.018
300.614
345.84
339.709
325.433
310.98
300.515
300.827
300.652
344.018
344.018
326.197
341.56
333.175
345.84
344.018
326.197
331.41
313.108
301.923
310.98
300.543
300.434
344.018
341.194
310.98
310.98
348.847
344.018
327.143
313.108
336.367
345.84
345.84
301.352
331.476
313.108
310.98
300.434
313.108
325.359
310.98
345.84
345.84
344.018
310.98
345.84
310.98
300.566
300.561
300.556
345.84
344.018
300.486
300.567
300.576
310.98
310.98
300.547
344.018
300.593
313.108
330.67
341.589
325.559
313.108
300.512
313.108
331.41
336.876
345.84
310.98
328.943
310.98
337.294
300.547
313.108
313.108
300.513
345.84
301.863
344.018
300.541
300.547
310.98
345.84
344.018
344.018
329.357
348.754
344.018
300.561
331.01
341.087
302.544
313.108
300.614
325.313
336.749
344.018
344.018
310.98
345.84
341.239
344.018
300.827
345.84
341.974
300.527
325.967
310.98
344.018
300.823
330.935
344.018
310.98
345.84
313.108
345.336
330.305
313.108
310.98
344.018
326.197
345.84
300.532
345.84
344.018
300.522
341.178
301.452
310.98
343.925
310.98
301.032
313.108
313.108
300.545
345.268
313.108
310.98
336.935
310.98
345.84
344.018
344.018
345.84
344.018
300.693
345.745
310.98
310.98
310.98
313.108
310.98
301.254
313.108
302.027
344.018
300.664
310.98
344.018
313.108
313.108
300.735
300.432
344.018
300.772
300.558
344.018
310.98
344.018
344.018
313.108
325.313
345.84
300.674
345.84
300.64
300.542
310.98
300.515
300.886
313.108
313.108
300.538
300.432
325.977
344.018
341.128
300.775
300.502
345.84
313.108
300.621
341.194
313.108
310.98
313.108
300.593
313.108
326.706
301.931
300.547
336.966
313.108
344.018
310.98
300.515
301.31
345.84
344.018
310.98
327.173
345.84
313.108
300.772
313.108
345.84
310.98
300.535
338.925
327.595
313.108
313.108
302.088
344.018
350.998
344.018
300.527
301.951
313.108
341.239
333.718
313.108
300.486
310.98
301.923
313.108
337.238
310.98
344.018
310.98
336.438
334.205
300.625
310.98
345.84
335.48
310.98
344.018
338.604
338.698
338.486
345.84
327.143
344.018
302.542
313.108
341.927
300.687
341.338
310.98
302.965
344.018
300.519
313.108
345.84
313.108
339.542
337.294
336.833
325.977
301.951
310.98
313.108
344.018
313.108
344.018
301.689
302.542
330.935
348.768
325.433
300.463
300.545
310.98
300.591
344.018
302.707
334.646
300.547
345.84
300.515
325.433
345.84
310.98
313.108
344.018
300.556
345.84
300.766
345.84
344.018
344.018
344.018
313.108
345.84
344.018
339.542
344.018
344.018
302.542
345.84
313.108
313.108
310.98
313.108
310.98
313.108
330.027
344.018
336.053
310.98
310.98
327.143
301.689
300.567
300.517
302.148
345.84
345.84
310.98
310.98
313.108
300.526
338.921
300.441
344.018
331.41
337.266
302.965
345.84
300.591
349.859
301.032
330.67
344.018
301.893
333.718
310.98
313.108
310.98
341.658
341.338
300.545
302.927
313.108
313.108
310.98
341.871
310.98
300.578
345.84
300.512
310.98
313.108
345.118
310.98
310.98
346.207
336.367
340.319
300.523
313.108
332.361
345.84
339.794
348.754
300.539
313.108
345.84
344.018
300.515
344.018
345.84
345.84
302.338
310.98
344.018
338.744
344.018
313.108
344.018
344.018
300.687
301.923
310.98
301.931
336.749
344.018
344.018
344.018
310.98
313.108
301.931
300.515
332.259
325.468
345.84
325.977
344.018
326.079
334.076
300.455
300.625
301.082
313.108
344.018
344.018
330.741
345.84
345.84
313.108
338.921
310.98
310.98
300.943
344.018
344.018
300.582
310.98
300.693
345.118
310.98
326.197
329.541
300.526
300.512
301.352
313.108
310.98
310.98
310.98
301.31
313.108
313.108
335.635
301.032
335.99
310.98
345.84
336.966
336.367
300.772
300.527
341.974
310.98
333.118
348.309
326.197
344.018
313.108
345.84
336.352
300.606
300.433
345.975
337.266
345.84
338.979
313.108
302.544
301.352
341.239
300.432
300.474
313.108
343.636
341.178
300.512
300.572
310.98
300.676
300.513
310.98
352.114
300.527
300.426
300.687
345.84
345.84
325.895
332.259
345.84
313.108
341.618
339.502
345.84
345.84
337.143
300.565
300.545
313.108
331.229
300.532
313.108
313.108
313.108
301.893
333.118
325.359
344.018
302.514
334.076
302.148
344.018
313.108
337.294
339.542
345.84
310.98
344.018
344.018
310.98
344.018
300.542
345.84
300.564
310.98
310.98
341.589
301.409
326.411
344.018
313.108
345.84
313.108
313.108
310.98
310.98
310.98
345.84
302.088
338.598
344.018
300.434
344.018
348.683
338.598
313.108
345.84
335.756
345.84
300.522
344.018
325.654
310.98
302.707
313.108
344.018
327.595
300.426
327.995
345.84
310.98
344.018
329.357
344.018
345.84
346.328
345.84
326.197
300.545
300.91
325.359
344.018
313.108
300.998
344.018
345.84
310.98
300.523
310.98
331.01
345.84
313.108
344.018
325.654
348.847
300.432
313.108
313.108
300.565
310.98
300.735
310.98
313.108
345.84
341.239
338.526
335.808
344.018
345.84
310.98
335.499
301.903
300.486
331.476
300.886
310.98
344.018
344.018
300.545
345.84
345.84
310.98
325.433
336.121
345.84
345.84
344.018
345.84
344.018
345.84
345.84
310.98
344.018
344.018
345.84
344.018
310.98
300.543
302.027
310.98
345.84
344.018
313.108
345.84
345.84
341.927
300.532
313.108
345.84
345.954
310.98
313.108
344.018
345.84
344.018
344.018
345.84
313.108
345.84
349.05
310.98
300.687
345.84
344.018
301.032
301.15
325.967
344.018
326.706
345.84
341.128
313.108
310.98
310.98
310.98
310.98
345.84
313.108
313.108
300.827
336.438
344.018
325.895
344.018
310.98
313.108
300.515
300.532
345.84
345.84
345.84
301.082
345.84
300.432
348.683
313.108
345.84
301.185
300.53
327.503
343.636
336.121
313.108
345.84
345.84
344.018
301.352
325.433
313.108
336.989
341.618
310.98
300.582
344.018
326.197
313.108
310.98
310.98
300.589
300.772
325.468
301.908
300.523
325.895
331.476
313.108
300.515
326.489
345.84
337.726
313.108
313.108
325.977
300.558
310.98
330.027
310.98
300.613
343.925
344.018
333.118
310.98
325.967
344.018
313.108
332.581
313.108
313.108
345.253
310.98
356.304
345.84
345.84
344.018
300.527
300.693
310.98
301.689
300.613
301.932
345.84
339.794
344.018
326.079
313.108
338.43
313.108
328.943
345.84
326.489
300.564
310.98
300.766
336.989
310.98
329.723
313.108
300.512
326.706
344.018
344.018
345.84
313.108
301.352
313.108