<?xml version="1.0"?>
<VTKFile type="ImageData" version="0.1" byte_order="LittleEndian">
  <ImageData Origin="0 0 0" Spacing="1e-05 1e-05 1e-05" WholeExtent="0 191 0 191 0 0">
    <Piece Extent="0 191 0 191 0 0">
      <CellData Scalars="T">
        <DataArray type="Float32" Name="T" format="ascii" NumberOfComponents="1">
383.76
15000
14995.3
14987.3
14974.6
14955.4
14927.5
14888.3
14834.9
14763.8
14671.3
14553.9
14407.5
14228.6
14014
13760.8
13467.2
13132
12755.3
12338.2
11883
11393
10872.8
10327.8
9764
9188.22
8607.45
8028.76
7459.11
6905.08
6372.67
5867.21
5393.15
4954.05
4552.5
4190.17
3867.76
3585.14
3341.42
3135.03
2963.83
2825.27
2716.48
2634.37
2575.78
2537.52
2516.53
2509.92
2515.03
2529.52
2551.36
2578.89
2610.8
2646.17
2684.36
2725.07
2768.22
2813.94
2862.47
2914.15
2969.28
3028.15
3090.92
3157.63
3228.14
3302.19
3379.32
3459.02
3540.7
3623.8
3707.85
3792.5
3877.6
3963.2
4049.5
4136.81
4225.49
4315.77
4407.69
4500.99
4595.02
4688.8
4780.99
4870.04
4954.35
5032.39
5102.95
5165.19
5218.75
5263.79
5300.84
5330.74
5354.46
5372.9
5386.78
5396.5
5402.16
5403.6
5400.48
5392.44
5379.29
5361.13
5338.44
5312.11
5283.41
5253.85
5225.04
5198.48
5175.35
5156.41
5141.83
5131.15
5123.33
5116.81
5109.63
5099.64
5084.66
5062.64
5031.88
4991.14
4939.73
4877.56
4805.15
4723.58
4634.45
4539.7
4441.56
4342.36
4244.44
4149.97
4060.9
3978.84
3905.04
3840.31
3785.08
3739.39
3702.94
3675.19
3655.4
3642.7
3636.23
3635.14
3638.7
3646.32
3657.59
3672.26
3690.28
3711.71
3736.73
3765.53
3798.27
3835.04
3875.71
3919.98
3967.28
4016.76
4067.31
4117.6
4166.11
4211.24
4251.39
4285.07
4311
4328.2
4336.07
4334.46
4323.65
4304.38
4277.78
4245.29
4208.59
4169.44
4129.6
4090.7
4054.14
4021
3991.99
3967.43
3947.2
3930.78
3917.19
3904.91
3891.69
3873.99
3845.98
3797.44
3709.72
3547.9
3245.47
2673.72
1576.53
310.72
471.506
15000
14995.3
14987.3
14974.7
14955.5
14927.7
14888.6
14835.2
14764.2
14671.9
14554.6
14408.4
14229.7
14015.2
13762.2
13468.8
13133.7
12757.1
12340.1
11884.8
11394.7
10874.3
10328.9
9764.81
9188.61
8607.36
8028.15
7457.96
6903.36
6370.39
5864.36
5389.76
4950.15
4548.12
4185.33
3862.5
3579.49
3335.41
3128.68
2957.18
2818.35
2709.32
2627.02
2568.26
2529.89
2508.85
2502.23
2507.39
2521.98
2543.96
2571.67
2603.8
2639.38
2677.79
2718.69
2762.01
2807.84
2856.43
2908.09
2963.15
3021.88
3084.46
3150.93
3221.18
3294.94
3371.78
3451.21
3532.65
3615.55
3699.44
3783.98
3869.03
3954.62
4040.95
4128.34
4217.11
4307.52
4399.59
4493.08
4587.34
4681.4
4773.92
4863.37
4948.14
5026.71
5097.84
5160.69
5214.87
5260.51
5298.13
5328.55
5352.72
5371.52
5385.68
5395.61
5401.43
5402.97
5399.91
5391.91
5378.78
5360.63
5337.93
5311.58
5282.83
5253.19
5224.25
5197.52
5174.18
5154.99
5140.12
5129.13
5120.99
5114.15
5106.67
5096.41
5081.18
5058.98
5028.08
4987.27
4935.83
4873.68
4801.35
4719.9
4630.91
4536.32
4438.35
4339.33
4241.57
4147.25
4058.3
3976.35
3902.61
3837.93
3782.71
3737.01
3700.54
3672.75
3652.91
3640.18
3633.69
3632.6
3636.19
3643.87
3655.22
3670.02
3688.19
3709.8
3735.01
3764
3796.93
3833.86
3874.66
3919.02
3966.33
4015.76
4066.19
4116.28
4164.52
4209.33
4249.11
4282.39
4307.9
4324.69
4332.18
4330.23
4319.15
4299.68
4272.95
4240.42
4203.74
4164.68
4124.98
4086.27
4049.9
4016.97
3988.15
3963.75
3943.66
3927.33
3913.79
3901.54
3888.32
3870.6
3842.59
3794.14
3706.78
3546.2
3248.07
2692.01
1653.99
303.883
469.302
15000
14995.3
14987.4
14974.8
14955.7
14927.9
14889
14835.8
14765
14673
14556
14410.2
14231.9
14017.8
13765.2
13472.1
13137.4
12761
12344
11888.6
11398.3
10877.6
10331.7
9766.91
9189.9
8607.72
8027.49
7456.21
6900.49
6366.39
5859.24
5383.55
4942.89
4539.87
4176.14
3852.44
3568.62
3323.78
3116.36
2944.23
2804.83
2695.3
2612.56
2553.47
2514.86
2493.67
2487.02
2492.26
2507.02
2529.27
2557.33
2589.84
2625.84
2664.67
2705.95
2749.57
2795.62
2844.32
2895.97
2950.89
3009.36
3071.57
3137.58
3207.3
3280.49
3356.77
3435.66
3516.62
3599.11
3682.69
3767.02
3851.95
3937.51
4023.9
4111.41
4200.38
4291.03
4383.4
4477.25
4571.96
4666.56
4759.74
4849.97
4935.65
5015.25
5087.51
5151.55
5206.95
5253.78
5292.53
5323.96
5349
5368.53
5383.26
5393.62
5399.74
5401.49
5398.56
5390.65
5377.58
5359.45
5336.75
5310.35
5281.5
5251.7
5222.52
5195.46
5171.7
5152
5136.56
5124.95
5116.17
5108.69
5100.61
5089.8
5074.1
5051.52
5020.36
4979.38
4927.89
4865.8
4793.61
4712.38
4623.67
4529.42
4431.79
4333.12
4235.69
4141.67
4052.98
3971.23
3897.64
3833.04
3777.86
3732.14
3695.62
3667.77
3647.86
3635.06
3628.53
3627.44
3631.08
3638.87
3650.4
3665.44
3683.91
3705.87
3731.45
3760.82
3794.12
3831.36
3872.41
3916.91
3964.25
4013.57
4063.75
4113.44
4161.15
4205.31
4244.35
4276.82
4301.51
4317.49
4324.24
4321.63
4310.02
4290.16
4263.2
4230.58
4193.97
4155.1
4115.7
4077.35
4041.39
4008.85
3980.42
3956.35
3936.51
3920.37
3906.94
3894.73
3881.48
3863.72
3835.68
3787.3
3700.35
3541.02
3245.98
2695.52
1658.41
303.831
468.112
15000
14995.4
14987.5
14974.9
14956
14928.4
14889.7
14836.8
14766.4
14674.8
14558.3
14413
14235.4
14021.9
13769.9
13477.4
13143.2
12767.1
12350.4
11895
11404.6
10883.4
10336.8
9771.12
9192.99
8609.49
8027.8
7454.93
6897.55
6361.75
5852.91
5375.55
4933.28
4528.71
4163.52
3838.44
3553.34
3307.3
3098.77
2925.62
2785.31
2674.96
2591.53
2531.87
2492.83
2471.38
2464.62
2469.91
2484.88
2507.47
2535.99
2569.04
2605.63
2645.03
2686.84
2730.91
2777.28
2826.15
2877.79
2932.52
2990.62
3052.29
3117.63
3186.59
3258.96
3334.42
3412.51
3492.75
3574.64
3657.74
3741.73
3826.47
3911.98
3998.43
4086.12
4175.34
4266.34
4359.14
4453.51
4548.87
4644.25
4738.37
4829.74
4916.73
4997.83
5071.72
5137.5
5194.68
5243.25
5283.65
5316.57
5342.91
5363.52
5379.1
5390.11
5396.7
5398.77
5396.07
5388.31
5375.34
5357.27
5334.58
5308.13
5279.15
5249.11
5219.57
5192.01
5167.63
5147.19
5130.89
5118.36
5108.62
5100.19
5091.2
5079.56
5063.16
5040.01
5008.44
4967.22
4915.66
4853.65
4781.67
4700.78
4612.49
4518.72
4421.62
4323.47
4226.54
4132.97
4044.68
3963.24
3889.88
3825.43
3770.31
3724.6
3688.02
3660.08
3640.06
3627.18
3620.6
3619.52
3623.24
3631.2
3642.99
3658.38
3677.28
3699.73
3725.85
3755.76
3789.57
3827.26
3868.64
3913.33
3960.69
4009.83
4059.61
4108.7
4155.61
4198.8
4236.74
4268.03
4291.51
4306.32
4311.98
4308.42
4296.04
4275.63
4248.34
4215.63
4179.14
4140.58
4101.63
4063.84
4028.49
3996.57
3968.7
3945.12
3925.68
3909.81
3896.53
3884.35
3871.04
3853.16
3825
3776.61
3689.94
3531.52
3238.44
2691.93
1672.38
303.813
469.107
15000
14995.4
14987.6
14975.1
14956.3
14929
14890.6
14838.1
14768.2
14677.2
14561.4
14417
14240.1
14027.6
13776.6
13484.9
13151.5
12776.1
12359.8
11904.7
11414.1
10892.5
10345.3
9778.52
9199.04
8613.93
8030.39
7455.49
6895.94
6357.9
5846.78
5367.16
4922.67
4515.97
4148.73
3821.71
3534.77
3287.03
3076.91
2902.3
2760.65
2649.12
2564.66
2504.14
2464.44
2442.52
2435.51
2440.77
2455.91
2478.86
2507.89
2541.57
2578.85
2618.96
2661.43
2706.06
2752.84
2801.92
2853.56
2908.06
2965.7
3026.71
3091.21
3159.2
3230.52
3304.91
3381.98
3461.28
3542.35
3624.81
3708.34
3792.8
3878.2
3964.7
4052.57
4142.1
4233.51
4326.84
4421.87
4518.03
4614.4
4709.73
4802.52
4891.19
4974.19
5050.18
5118.18
5177.63
5228.45
5270.97
5305.83
5333.86
5355.89
5372.61
5384.49
5391.73
5394.28
5391.92
5384.4
5371.6
5353.64
5330.99
5304.49
5275.36
5245.02
5215.02
5186.82
5161.62
5140.18
5122.76
5109.01
5098
5088.3
5078.11
5065.38
5048.04
5024.14
4992.03
4950.48
4898.81
4836.9
4765.2
4684.75
4597.02
4503.9
4407.49
4310.04
4213.78
4120.84
4033.08
3952.08
3879.05
3814.81
3759.81
3714.12
3677.49
3649.46
3629.34
3616.36
3609.73
3608.66
3612.49
3620.67
3632.79
3648.63
3668.07
3691.15
3717.93
3748.52
3782.96
3821.18
3862.96
3907.85
3955.19
4004.05
4053.28
4101.56
4147.4
4189.31
4225.8
4255.56
4277.47
4290.77
4295.03
4290.27
4276.93
4255.83
4228.17
4195.38
4159.09
4120.97
4082.66
4045.62
4011.1
3980
3952.9
3929.98
3911.05
3895.53
3882.42
3870.26
3856.82
3838.72
3810.3
3761.73
3675.16
3517.39
3225.95
2681.98
1654.4
303.772
467.055
15000
14995.5
14987.7
14975.4
14956.8
14929.8
14891.7
14839.7
14770.4
14680.3
14565.4
14421.9
14246.3
14035
13785.2
13494.8
13162.5
12788.2
12372.6
11918
11427.6
10905.8
10357.9
9790.16
9209.24
8622.32
8036.65
7459.35
6897.19
6356.39
5842.44
5359.95
4912.63
4503.15
4133.23
3803.64
3514.28
3264.24
3051.98
2875.38
2731.92
2618.76
2532.87
2471.14
2430.46
2407.82
2400.35
2405.4
2420.6
2443.84
2473.36
2507.7
2545.71
2586.6
2629.81
2675.07
2722.33
2771.68
2823.33
2877.59
2934.71
2994.96
3058.48
3125.33
3195.41
3268.52
3344.34
3422.49
3502.57
3584.2
3667.13
3751.19
3836.41
3922.91
4010.95
4100.8
4192.67
4286.59
4382.37
4479.46
4576.98
4673.71
4768.19
4858.83
4944.06
5022.53
5093.15
5155.31
5208.81
5253.88
5291.09
5321.18
5344.95
5363.1
5376.1
5384.19
5387.38
5385.49
5378.33
5365.8
5348.03
5325.48
5298.97
5269.67
5238.99
5208.44
5179.46
5153.24
5130.59
5111.78
5096.51
5083.93
5072.67
5060.99
5046.91
5028.4
5003.56
4970.77
4928.81
4877
4815.2
4743.85
4663.94
4576.91
4484.58
4389.04
4292.47
4197.06
4104.9
4017.83
3937.4
3864.81
3800.88
3746.06
3700.43
3663.8
3635.68
3615.46
3602.4
3595.72
3594.69
3598.67
3607.1
3619.62
3635.98
3656.06
3679.86
3707.41
3738.77
3773.91
3812.73
3854.92
3900
3947.24
3995.69
4044.2
4091.43
4135.94
4176.27
4211
4238.89
4258.92
4270.4
4273.01
4266.84
4252.39
4230.53
4202.47
4169.65
4133.66
4096.14
4058.65
4022.59
3989.12
3959.07
3932.93
3910.83
3892.53
3877.43
3864.51
3852.31
3838.66
3820.18
3791.33
3742.39
3655.71
3498.38
3208.21
2666.4
1644.73
303.77
464.281
15000
14995.5
14987.9
14975.7
14957.4
14930.7
14893.1
14841.7
14773.1
14683.9
14570.1
14428
14253.7
14044
13795.8
13507.1
13176.4
12803.4
12389.1
11935.4
11445.5
10923.8
10375.5
9806.86
9224.56
8635.78
8047.82
7467.85
6902.73
6358.73
5841.43
5355.51
4904.72
4491.82
4118.56
3785.74
3493.29
3240.32
3025.31
2846.15
2700.32
2585.02
2497.23
2433.86
2391.82
2368.1
2359.88
2364.49
2379.54
2402.93
2432.84
2467.76
2506.5
2548.16
2592.14
2638.09
2685.87
2735.52
2787.22
2841.22
2897.81
2957.23
3019.68
3085.25
3153.94
3225.59
3299.98
3376.78
3455.66
3536.31
3618.46
3702
3786.92
3873.35
3961.51
4051.65
4143.97
4238.52
4335.1
4433.2
4531.97
4630.25
4726.59
4819.42
4907.16
4988.39
5061.99
5127.21
5183.75
5231.75
5271.66
5304.15
5329.98
5349.83
5364.21
5373.38
5377.4
5376.16
5369.51
5357.38
5339.9
5317.53
5291.06
5261.61
5230.55
5199.37
5169.48
5142.09
5118
5097.56
5080.51
5066.07
5052.95
5039.5
5023.82
5003.92
4977.97
4944.37
4901.92
4849.93
4788.26
4717.31
4638.03
4551.82
4460.45
4365.94
4270.42
4176.04
4084.84
3998.61
3918.9
3846.88
3783.36
3728.81
3683.32
3646.71
3618.56
3598.27
3585.14
3578.44
3577.48
3581.63
3590.37
3603.34
3620.28
3641.06
3665.65
3694.03
3726.2
3762.09
3801.5
3844.08
3889.28
3936.32
3984.22
4031.81
4077.77
4120.68
4159.14
4191.82
4217.54
4235.41
4244.82
4245.57
4237.83
4222.17
4199.51
4171.07
4138.3
4102.75
4066
4029.54
3994.69
3962.49
3933.7
3908.72
3887.6
3870.05
3855.42
3842.7
3830.42
3816.42
3797.4
3767.9
3718.36
3631.35
3474.34
3185.85
2649.66
1651.34
303.814
463.517
15000
14995.6
14988.1
14976.1
14958
14931.7
14894.6
14843.8
14776.2
14688
14575.5
14434.8
14262.3
14054.4
13808.2
13521.5
13192.8
12821.8
12409.1
11956.8
11467.9
10946.6
10398.3
9829.06
9245.57
8655.02
8064.76
7482
6913.68
6366.15
5845.06
5355.2
4900.38
4483.43
4106.17
3769.45
3473.23
3216.67
2998.24
2815.89
2667.11
2549.1
2458.88
2393.38
2349.52
2324.33
2314.98
2318.82
2333.46
2356.76
2386.87
2422.23
2461.59
2503.98
2548.7
2595.33
2643.65
2693.63
2745.4
2799.17
2855.2
2913.77
2975.09
3039.31
3106.48
3176.54
3249.32
3324.61
3402.12
3481.59
3562.81
3645.67
3730.16
3816.4
3904.58
3994.95
4087.68
4182.83
4280.21
4379.34
4479.43
4579.32
4677.64
4772.8
4863.23
4947.44
5024.25
5092.81
5152.7
5203.93
5246.86
5282.07
5310.27
5332.11
5348.12
5358.62
5363.7
5363.31
5357.35
5345.77
5328.73
5306.64
5280.27
5250.71
5219.27
5187.4
5156.5
5127.77
5102.07
5079.76
5060.67
5044.11
5028.88
5013.41
4995.88
4974.39
4947.16
4912.61
4869.59
4817.4
4755.87
4685.37
4606.82
4521.55
4431.28
4337.96
4243.67
4150.5
4060.42
3975.21
3896.36
3825.05
3762.07
3707.88
3662.61
3626.11
3597.98
3577.66
3564.51
3557.83
3556.96
3561.31
3570.4
3583.85
3601.41
3622.94
3648.35
3677.59
3710.59
3747.21
3787.18
3830.08
3875.29
3921.99
3969.17
4015.63
4060.08
4101.14
4137.46
4167.81
4191.11
4206.58
4213.73
4212.47
4203.05
4186.13
4162.67
4133.92
4101.3
4066.34
4030.56
3995.34
3961.91
3931.21
3903.9
3880.26
3860.28
3843.59
3829.49
3816.95
3804.5
3790.03
3770.28
3739.91
3689.53
3601.99
3445.29
3158.98
2629.07
1640.81
303.828
463.858
15000
14995.7
14988.3
14976.5
14958.6
14932.7
14896.1
14846.1
14779.4
14692.3
14581.2
14442.2
14271.5
14065.8
13821.9
13537.5
13211.2
12842.5
12432
11981.6
11494.2
10973.9
10426.1
9856.61
9272.27
8680.21
8087.79
7502.29
6930.68
6379.43
5854.25
5360.04
4900.71
4479.16
4097.3
3756.04
3455.39
3194.57
2972.08
2785.89
2633.53
2512.22
2419.01
2350.83
2304.66
2277.52
2266.61
2269.29
2283.15
2306.05
2336.1
2371.68
2411.49
2454.47
2499.86
2547.12
2595.96
2646.28
2698.14
2751.69
2807.2
2864.91
2925.08
2987.9
3053.48
3121.84
3192.9
3266.51
3342.47
3420.59
3500.7
3582.7
3666.6
3752.5
3840.58
3931.07
4024.12
4119.79
4217.92
4318.06
4419.44
4520.98
4621.3
4718.87
4812.07
4899.41
4979.59
5051.69
5115.16
5169.88
5216.09
5254.3
5285.15
5309.27
5327.2
5339.29
5345.68
5346.38
5341.33
5330.5
5314.04
5292.37
5266.21
5236.58
5204.77
5172.18
5140.19
5110.01
5082.52
5058.14
5036.8
5017.88
5000.3
4982.57
4962.98
4939.72
4911.05
4875.46
4831.79
4779.36
4717.98
4647.99
4570.25
4486.03
4397
4305.02
4212.12
4120.32
4031.54
3947.51
3869.69
3799.22
3736.91
3683.21
3638.27
3601.96
3573.92
3553.64
3540.51
3533.9
3533.17
3537.77
3547.23
3561.19
3579.4
3601.68
3627.91
3658
3691.8
3729.09
3769.55
3812.66
3857.75
3903.94
3950.19
3995.31
4038
4076.96
4110.9
4138.68
4159.35
4172.23
4176.98
4173.59
4162.44
4144.25
4120.04
4091.06
4058.74
4024.54
3989.91
3956.15
3924.36
3895.38
3869.74
3847.62
3828.91
3813.17
3799.64
3787.27
3774.57
3759.47
3738.8
3707.33
3655.87
3567.64
3411.21
3127.32
2604.01
1630.71
303.828
464.26
15000
14995.7
14988.4
14976.8
14959.3
14933.7
14897.7
14848.4
14782.6
14696.7
14587
14449.7
14281
14077.5
13836.1
13554.3
13230.8
12864.8
12456.9
12008.8
11523.5
11004.8
10457.9
9888.76
9304.05
8710.88
8116.62
7528.58
6953.8
6398.79
5869.4
5370.59
4906.4
4479.82
4092.86
3746.5
3440.84
3175.14
2947.96
2757.32
2600.76
2475.55
2378.76
2307.36
2258.33
2228.74
2215.79
2216.86
2229.53
2251.64
2281.28
2316.8
2356.81
2400.19
2446.09
2493.89
2543.2
2593.84
2645.79
2699.16
2754.16
2811.05
2870.08
2931.49
2995.44
3062.03
3131.27
3203.08
3277.35
3353.94
3432.75
3513.7
3596.81
3682.2
3770.01
3860.46
3953.7
4049.78
4148.56
4249.61
4352.22
4455.34
4557.64
4657.59
4753.6
4844.1
4927.75
5003.5
5070.71
5129.12
5178.85
5220.33
5254.1
5280.79
5300.93
5314.89
5322.88
5324.93
5321.02
5311.16
5295.48
5274.38
5248.54
5218.94
5186.79
5153.47
5120.34
5088.61
5059.2
5032.61
5008.83
4987.35
4967.21
4947.03
4925.21
4900
4869.76
4833.02
4788.64
4735.94
4674.72
4605.28
4528.42
4445.37
4357.69
4267.2
4175.84
4085.58
3998.26
3915.57
3838.93
3769.46
3707.95
3654.86
3610.36
3574.34
3546.49
3526.33
3513.3
3506.8
3506.25
3511.13
3521
3535.49
3554.35
3577.37
3604.41
3635.29
3669.82
3707.7
3748.52
3791.7
3836.49
3881.99
3927.1
3970.64
4011.36
4047.98
4079.32
4104.33
4122.19
4132.34
4134.57
4129.01
4116.12
4096.69
4071.81
4042.73
4010.85
3977.59
3944.3
3912.19
3882.25
3855.17
3831.37
3810.92
3793.59
3778.86
3765.92
3753.67
3740.64
3724.78
3703
3670.21
3617.47
3528.38
3372.25
3091.16
2576.07
1622.78
303.802
465.758
15000
14995.8
14988.6
14977.2
14959.8
14934.6
14899.1
14850.5
14785.5
14700.7
14592.4
14456.8
14290.1
14088.8
13850
13571
13250.4
12887.4
12482.5
12037.2
11554.3
11037.7
10492.4
9924.21
9339.7
8745.96
8150.34
7560.15
6982.47
6423.89
5890.34
5386.88
4917.66
4485.79
4093.37
3741.49
3430.33
3159.23
2926.82
2731.15
2569.84
2440.16
2339.23
2264.05
2211.63
2179.06
2163.56
2162.53
2173.54
2194.44
2223.28
2258.37
2298.27
2341.79
2388
2436.19
2485.87
2536.78
2588.81
2642.02
2696.55
2752.66
2810.59
2870.61
2932.93
2997.72
3065.05
3134.96
3207.4
3282.3
3359.62
3439.33
3521.45
3606.11
3693.45
3783.67
3876.92
3973.24
4072.51
4174.34
4278.04
4382.62
4486.8
4589.06
4687.8
4781.45
4868.57
4948.05
5019.09
5081.34
5134.79
5179.75
5216.72
5246.27
5268.91
5285.06
5294.93
5298.62
5296.13
5287.47
5272.8
5252.45
5227.07
5197.59
5165.17
5131.15
5096.86
5063.53
5032.12
5003.19
4976.83
4952.64
4929.78
4906.99
4882.77
4855.5
4823.58
4785.6
4740.46
4687.48
4626.42
4557.57
4481.66
4399.85
4313.64
4224.77
4135.09
4046.5
3960.8
3879.6
3804.29
3735.96
3675.39
3623.05
3579.1
3543.49
3515.92
3495.96
3483.1
3476.78
3476.47
3481.67
3491.96
3506.99
3526.48
3550.22
3578.01
3609.62
3644.78
3683.12
3724.16
3767.23
3811.55
3856.13
3899.88
3941.63
3980.14
4014.22
4042.76
4064.84
4079.75
4087.08
4086.75
4078.99
4064.39
4043.8
4018.35
3989.29
3958.01
3925.85
3894.08
3863.8
3835.86
3810.84
3789
3770.32
3754.44
3740.75
3728.39
3716.21
3702.74
3685.98
3662.91
3628.62
3574.43
3484.39
3328.59
3050.43
2542.47
1597.6
303.719
467.056
15000
14995.8
14988.7
14977.4
14960.3
14935.4
14900.3
14852.2
14788
14704.2
14597.1
14463
14298.2
14099
13862.6
13586.4
13268.8
12908.9
12507.2
12065
11585.1
11071.1
10527.9
9961.19
9377.53
8783.86
8187.48
7595.69
7015.59
6453.82
5916.38
5408.43
4934.23
4496.99
4098.95
3741.3
3424.31
3147.43
2909.35
2708.2
2541.62
2406.98
2301.39
2221.92
2165.59
2129.52
2110.97
2107.32
2116.19
2135.4
2162.99
2197.25
2236.68
2280.03
2326.29
2374.66
2424.58
2475.66
2527.73
2580.77
2634.87
2690.24
2747.13
2805.8
2866.52
2929.5
2994.9
3062.83
3133.32
3206.39
3282.04
3360.29
3441.21
3524.91
3611.55
3701.31
3794.35
3890.7
3990.26
4092.67
4197.28
4303.15
4409.03
4513.45
4614.82
4711.51
4802.06
4885.24
4960.18
5026.36
5083.69
5132.35
5172.76
5205.44
5230.91
5249.55
5261.63
5267.26
5266.47
5259.29
5245.85
5226.46
5201.72
5172.49
5139.9
5105.23
5069.81
5034.87
5001.41
4970.07
4941.04
4914.04
4888.34
4862.83
4836.11
4806.66
4772.98
4733.7
4687.76
4634.47
4573.59
4505.36
4430.46
4349.97
4265.32
4178.16
4090.29
4003.5
3919.54
3839.97
3766.12
3699.07
3639.57
3588.09
3544.83
3509.73
3482.54
3462.88
3450.27
3444.2
3444.18
3449.73
3460.46
3476.02
3496.13
3520.54
3549
3581.24
3616.91
3655.57
3696.65
3739.44
3783.06
3826.51
3868.7
3908.43
3944.53
3975.88
4001.46
4020.48
4032.35
4036.81
4033.9
4023.98
4007.73
3986.08
3960.17
3931.28
3900.74
3869.83
3839.72
3811.4
3785.58
3762.71
3742.92
3726.04
3711.62
3698.95
3687.1
3674.9
3660.89
3643.08
3618.59
3582.66
3526.9
3435.85
3280.39
3005.13
2503.82
1570.24
303.646
467.616
15000
14995.9
14988.8
14977.6
14960.6
14935.9
14901.1
14853.4
14789.8
14706.8
14600.7
14467.8
14304.6
14107.3
13873.1
13599.5
13284.7
12927.9
12529.4
12090.5
11613.8
11102.8
10562.3
9997.71
9415.55
8822.65
8226.22
7633.52
7051.64
6487.25
5946.39
5434.33
4955.4
4512.96
4109.33
3745.85
3422.9
3140.01
2895.97
2688.99
2516.79
2376.76
2266.09
2181.86
2121.15
2081.11
2058.99
2052.24
2058.48
2075.51
2101.39
2134.37
2172.92
2215.74
2261.74
2310.04
2359.99
2411.12
2463.16
2516
2569.69
2624.36
2680.26
2737.65
2796.81
2858.01
2921.47
2987.36
3055.82
3126.92
3200.74
3277.34
3356.82
3439.33
3525.02
3614.07
3706.64
3802.77
3902.37
4005.12
4110.41
4217.34
4324.71
4431.09
4534.88
4634.48
4728.34
4815.18
4894
4964.18
5025.5
5078.04
5122.13
5158.23
5186.81
5208.27
5222.88
5230.78
5232
5226.58
5214.62
5196.42
5172.51
5143.7
5111.06
5075.84
5039.35
5002.84
4967.34
4933.57
4901.84
4871.97
4843.37
4815.06
4785.77
4754.09
4718.58
4677.96
4631.18
4577.58
4516.89
4449.31
4375.45
4296.34
4213.32
4127.97
4041.99
3957.11
3875
3797.16
3724.9
3659.24
3600.93
3550.44
3507.97
3473.49
3446.79
3427.51
3415.23
3409.48
3409.79
3415.73
3426.91
3442.99
3463.68
3488.69
3517.74
3550.49
3586.54
3625.35
3666.3
3708.59
3751.31
3793.43
3833.82
3871.34
3904.86
3933.32
3955.82
3971.69
3980.47
3982.05
3976.59
3964.58
3946.77
3924.16
3897.93
3869.34
3839.66
3810.13
3781.79
3755.51
3731.87
3711.18
3693.43
3678.32
3665.29
3653.55
3642.11
3629.76
3615.06
3596.07
3570.03
3532.35
3474.98
3382.93
3227.91
2955.85
2463.2
1552.29
303.57
469.359
15000
14995.9
14988.8
14977.7
14960.7
14936.1
14901.5
14854.1
14790.8
14708.2
14602.8
14470.9
14308.8
14113.1
13880.8
13609.3
13297.1
12943.2
12547.8
12112.3
11638.9
11131.1
10593.6
10031.7
9451.71
8860.29
8264.57
7671.74
7088.84
6522.55
5978.94
5463.33
4980.15
4532.87
4123.92
3754.76
3425.9
3136.96
2886.86
2673.87
2495.8
2350.09
2234
2144.65
2079.15
2034.7
2008.58
1998.27
2001.38
2015.76
2039.45
2070.69
2107.92
2149.8
2195.18
2243.11
2292.85
2343.85
2395.74
2448.33
2501.59
2555.6
2610.56
2666.73
2724.4
2783.86
2845.4
2909.24
2975.6
3044.63
3116.46
3191.22
3269.05
3350.12
3434.59
3522.67
3614.49
3710.13
3809.49
3912.3
4017.99
4125.71
4234.3
4342.38
4448.38
4550.68
4647.7
4738.08
4820.73
4894.94
4960.34
5016.91
5064.89
5104.66
5136.66
5161.26
5178.74
5189.23
5192.78
5189.41
5179.21
5162.44
5139.57
5111.38
5078.86
5043.22
5005.78
4967.77
4930.3
4894.15
4859.73
4826.99
4795.48
4764.35
4732.46
4698.5
4661.14
4619.14
4571.52
4517.6
4457.1
4390.17
4317.38
4239.69
4158.36
4074.87
3990.85
3907.95
3827.78
3751.77
3681.18
3617.02
3560
3510.59
3469.01
3435.25
3409.13
3390.32
3378.45
3373.07
3373.76
3380.11
3391.75
3408.33
3429.55
3455.1
3484.64
3517.78
3554.04
3592.84
3633.46
3675.06
3716.67
3757.25
3795.66
3830.79
3861.56
3887.01
3906.35
3919.02
3924.71
3923.44
3915.49
3901.47
3882.22
3858.79
3832.36
3804.19
3775.5
3747.42
3720.91
3696.7
3675.23
3656.66
3640.86
3627.4
3615.62
3604.65
3593.44
3580.77
3565.21
3544.91
3517.21
3477.74
3418.74
3325.79
3171.39
2902.94
2419.38
1526.65
303.445
470.635
15000
14995.9
14988.8
14977.6
14960.7
14936.1
14901.4
14854
14790.8
14708.5
14603.4
14472
14310.7
14116
13885
13615.3
13305.2
12953.8
12561.3
12128.9
11658.8
11154.5
10620.3
10061.5
9484.16
8894.87
8300.61
7708.46
7125.38
6558.02
6012.45
5494.03
5007.26
4555.69
4141.89
3767.41
3432.88
3138.06
2881.96
2662.94
2478.9
2327.36
2205.63
2110.89
2040.3
1991.09
1960.58
1946.27
1945.82
1957.09
1978.11
2007.14
2042.6
2083.11
2127.48
2174.7
2223.95
2274.59
2326.17
2378.41
2431.2
2484.56
2538.63
2593.64
2649.88
2707.66
2767.31
2829.11
2893.34
2960.21
3029.93
3102.68
3178.66
3258.04
3341.05
3427.86
3518.65
3613.49
3712.32
3814.89
3920.67
4028.87
4138.39
4247.88
4355.81
4460.56
4560.54
4654.31
4740.72
4818.93
4888.46
4949.19
5001.24
5044.93
5080.63
5108.68
5129.35
5142.75
5148.95
5147.94
5139.79
5124.71
5103.14
5075.77
5043.57
5007.71
4969.46
4930.11
4890.78
4852.34
4815.29
4779.74
4745.35
4711.42
4676.93
4640.69
4601.47
4558.1
4509.61
4455.36
4395.04
4328.78
4257.08
4180.82
4101.19
4019.6
3937.58
3856.72
3778.53
3704.42
3635.57
3572.97
3517.32
3469.08
3428.47
3395.52
3370.05
3351.79
3340.38
3335.43
3336.54
3343.32
3355.41
3372.47
3394.17
3420.17
3450.09
3483.48
3519.81
3558.41
3598.52
3639.23
3679.54
3718.38
3754.64
3787.23
3815.14
3837.5
3853.63
3863.09
3865.72
3861.66
3851.33
3835.42
3814.86
3790.74
3764.25
3736.61
3708.99
3682.42
3657.74
3635.55
3616.16
3599.59
3585.57
3573.56
3562.8
3552.35
3541.12
3527.91
3511.3
3489.54
3460.1
3418.82
3358.29
3264.57
3111.05
2846.51
2372.19
1497.18
303.305
469.946
15000
14995.8
14988.8
14977.5
14960.4
14935.7
14900.9
14853.4
14790
14707.5
14602.5
14471.1
14310
14115.9
13885.7
13617.2
13308.7
12959.4
12569.3
12139.7
11672.8
11171.9
10641.1
10085.6
9511.41
8924.83
8332.72
7742.02
7159.61
6592.05
6045.39
5525.01
5035.44
4580.32
4162.29
3783.02
3443.27
3142.9
2881.02
2656.13
2466.18
2308.8
2181.35
2081.07
2005.18
1950.94
1915.73
1897.07
1892.66
1900.39
1918.3
1944.66
1977.89
2016.59
2059.53
2105.65
2154.08
2204.09
2255.16
2306.91
2359.14
2411.82
2465.01
2518.91
2573.8
2629.98
2687.79
2747.58
2809.66
2874.33
2941.85
3012.45
3086.38
3163.87
3245.15
3330.43
3419.89
3513.63
3611.61
3713.61
3819.16
3927.51
4037.63
4148.22
4257.78
4364.71
4467.4
4564.39
4654.42
4736.57
4810.26
4875.23
4931.52
4979.33
5018.99
5050.78
5074.95
5091.59
5100.75
5102.41
5096.6
5083.5
5063.49
5037.21
5005.56
4969.68
4930.84
4890.32
4849.29
4808.71
4769.17
4730.91
4693.72
4657.03
4619.98
4581.49
4540.42
4495.66
4446.31
4391.71
4331.57
4265.96
4195.34
4120.52
4042.6
3962.91
3882.9
3804.09
3727.91
3655.72
3588.65
3527.66
3473.43
3426.42
3386.85
3354.76
3330.01
3312.35
3301.47
3296.99
3298.55
3305.76
3318.29
3335.79
3357.91
3384.28
3414.47
3447.98
3484.21
3522.45
3561.86
3601.49
3640.32
3677.26
3711.22
3741.15
3766.11
3785.32
3798.23
3804.52
3804.17
3797.43
3784.84
3767.19
3745.47
3720.8
3694.37
3667.36
3640.86
3615.8
3592.92
3572.65
3555.19
3540.4
3527.9
3517.05
3506.99
3496.75
3485.22
3471.19
3453.33
3429.96
3398.72
3355.67
3293.72
3199.46
3047.09
2786.68
2320.99
1459.12
303.163
468.46
15000
14995.8
14988.6
14977.2
14960.1
14935.1
14900
14852.1
14788.4
14705.6
14600.1
14468.4
14307.1
14113
13883.1
13615.3
13307.8
12959.9
12571.8
12144.6
11680.6
11182.8
10655.4
10103.4
9532.58
8949.13
8359.73
7771.18
7190.22
6623.31
6076.46
5555.01
5063.51
4605.65
4184.15
3800.78
3456.39
3150.95
2883.71
2653.23
2457.59
2294.49
2161.35
2055.5
1974.2
1914.78
1874.64
1851.35
1842.65
1846.46
1860.85
1884.11
1914.66
1951.09
1992.17
2036.8
2084.03
2133.11
2183.4
2234.47
2286.03
2337.96
2390.27
2443.1
2496.68
2551.33
2607.38
2665.21
2725.17
2787.62
2852.86
2921.21
2992.95
3068.34
3147.66
3231.15
3319
3411.34
3508.15
3609.26
3714.24
3822.4
3932.78
4044.12
4154.99
4263.8
4368.95
4468.92
4562.42
4648.43
4726.24
4795.51
4856.14
4908.26
4952.1
4987.9
5015.86
5036.05
5048.48
5053.11
5049.95
5039.12
5020.95
4996.03
4965.2
4929.56
4890.37
4848.91
4806.4
4763.86
4722
4681.15
4641.28
4601.94
4562.39
4521.69
4478.79
4432.66
4382.43
4327.48
4267.49
4202.51
4132.94
4059.52
3983.29
3905.48
3827.47
3750.69
3676.53
3606.26
3540.99
3481.62
3428.84
3383.09
3344.6
3313.41
3289.43
3272.42
3262.09
3258.11
3260.13
3267.78
3280.73
3298.62
3321.09
3347.73
3378.07
3411.56
3447.55
3485.25
3523.78
3562.17
3599.35
3634.25
3665.79
3692.97
3714.93
3731
3740.72
3743.91
3740.68
3731.39
3716.7
3697.48
3674.76
3649.68
3623.43
3597.13
3571.78
3548.22
3527.03
3508.54
3492.78
3479.5
3468.2
3458.14
3448.42
3438.01
3425.82
3410.69
3391.35
3366.25
3333.17
3288.42
3225.24
3130.7
2979.78
2723.76
2267.19
1420.93
303.019
467.415
15000
14995.7
14988.5
14976.9
14959.5
14934.3
14898.8
14850.5
14786.2
14702.8
14596.6
14464.3
14302.5
14107.9
13877.8
13610
13303
12956
12569.3
12144.1
11682.4
11187.5
10663.3
10114.8
9547.41
8967.36
8381.08
7795.22
7216.38
6650.89
6104.68
5583.03
5090.49
4630.76
4206.62
3819.91
3471.57
3161.69
2889.59
2653.96
2452.96
2284.38
2145.73
2034.39
1947.7
1883.01
1837.8
1809.68
1796.43
1796
1806.52
1826.27
1853.71
1887.45
1926.23
1968.93
2014.59
2062.37
2111.6
2161.76
2212.48
2263.56
2314.94
2366.7
2419.03
2472.21
2526.57
2582.5
2640.4
2700.63
2763.58
2829.6
2899.02
2972.16
3049.32
3130.78
3216.75
3307.4
3402.74
3502.64
3606.71
3714.35
3824.63
3936.39
4048.22
4158.59
4265.9
4368.62
4465.4
4555.12
4637
4710.57
4775.62
4832.19
4880.4
4920.45
4952.45
4976.46
4992.46
5000.37
5000.16
4991.89
4975.86
4952.59
4922.87
4887.77
4848.49
4806.36
4762.61
4718.35
4674.36
4631.12
4588.71
4546.82
4504.87
4462.01
4417.31
4369.81
4318.71
4263.38
4203.52
4139.12
4070.56
3998.5
3923.9
3847.93
3771.87
3697.09
3624.91
3556.53
3493.04
3435.3
3383.96
3339.48
3302.08
3271.83
3248.63
3232.29
3222.55
3219.07
3221.55
3229.62
3242.96
3261.19
3283.93
3310.75
3341.12
3374.46
3410.04
3447.05
3484.55
3521.53
3556.93
3589.66
3618.68
3643.06
3662.02
3674.96
3681.57
3681.77
3675.79
3664.12
3647.51
3626.89
3603.34
3578.02
3552.05
3526.52
3502.33
3480.2
3460.58
3443.66
3429.33
3417.24
3406.76
3397.09
3387.28
3376.31
3363.11
3346.58
3325.55
3298.6
3263.7
3217.37
3153.17
3058.65
2909.53
2658.15
2210.82
1383.04
302.917
467.496
15000
14995.7
14988.3
14976.6
14959
14933.4
14897.5
14848.6
14783.7
14699.5
14592.5
14459.3
14296.6
14101.2
13870.5
13602.4
13295.3
12948.8
12563
12139.2
11679.4
11186.9
10665.6
10120.3
9556.33
8979.74
8396.81
7814.01
7237.78
6674.34
6129.48
5608.42
5115.68
4654.94
4229
3839.75
3488.23
3174.58
2898.24
2657.98
2452.07
2278.37
2134.48
2017.83
1925.84
1855.92
1805.6
1772.53
1754.54
1749.62
1755.94
1771.83
1795.78
1826.4
1862.44
1902.8
1946.47
1992.58
2040.42
2089.39
2139.06
2189.15
2239.52
2290.19
2341.29
2393.05
2445.81
2499.93
2555.81
2613.88
2674.55
2738.2
2805.23
2876
2950.84
3030.06
3113.92
3202.62
3296.2
3394.57
3497.42
3604.19
3714.03
3825.85
3938.32
4049.92
4159.08
4264.28
4364.1
4457.37
4543.22
4621.04
4690.55
4751.65
4804.38
4848.85
4885.13
4913.22
4933.05
4944.51
4947.54
4942.14
4928.55
4907.24
4878.94
4844.67
4805.62
4763.11
4718.41
4672.67
4626.79
4581.36
4536.57
4492.27
4448.01
4403.06
4356.59
4307.75
4255.75
4200.02
4140.23
4076.37
4008.75
3937.98
3864.95
3790.74
3716.58
3643.74
3573.47
3506.95
3445.19
3389.04
3339.13
3295.9
3259.59
3230.27
3207.86
3192.2
3183.03
3180.06
3182.98
3191.45
3205.12
3223.63
3246.56
3273.45
3303.74
3336.78
3371.82
3407.98
3444.3
3479.73
3513.22
3543.69
3570.14
3591.69
3607.65
3617.54
3621.13
3618.49
3609.94
3596.08
3577.75
3555.93
3531.73
3506.3
3480.73
3456.01
3432.96
3412.17
3393.95
3378.36
3365.17
3353.89
3343.83
3334.12
3323.81
3311.88
3297.32
3279.12
3256.22
3227.37
3190.69
3142.95
3078
2983.85
2836.89
2590.71
2154.06
1347.54
302.845
467.489
15000
14995.6
14988.1
14976.3
14958.4
14932.5
14896.2
14846.8
14781.2
14696.2
14588.3
14454.1
14290.4
14094
13862.5
13593.6
13286.2
12939.6
12554.2
12131.3
11673
11182.5
10663.6
10121.1
9560.35
8987.1
8407.53
7827.95
7254.66
6693.7
6150.75
5630.95
5138.73
4677.75
4250.8
3859.83
3505.87
3189.19
2909.27
2664.98
2454.67
2276.29
2127.5
2005.82
1908.72
1833.68
1778.27
1740.21
1717.36
1707.78
1709.66
1721.39
1741.49
1768.6
1801.51
1839.09
1880.36
1924.42
1970.5
2017.98
2066.35
2115.26
2164.5
2214.02
2263.89
2314.28
2365.49
2417.88
2471.85
2527.82
2586.24
2647.55
2712.15
2780.46
2852.86
2929.68
3011.24
3097.75
3189.31
3285.88
3387.2
3492.78
3601.85
3713.39
3826.14
3938.63
4049.33
4156.71
4259.32
4355.95
4445.6
4527.61
4601.54
4667.21
4724.55
4773.59
4814.32
4846.7
4870.6
4885.88
4892.41
4890.17
4879.32
4860.27
4833.71
4800.6
4762.1
4719.52
4674.16
4627.23
4579.71
4532.29
4485.31
4438.75
4392.28
4345.31
4297.12
4246.93
4194.02
4137.84
4078.07
4014.68
3947.93
3878.37
3806.82
3734.29
3661.94
3590.95
3522.53
3457.79
3397.71