<?xml version="1.0"?>
<VTKFile type="ImageData" version="0.1" byte_order="LittleEndian">
  <ImageData Origin="0 0 0" Spacing="1e-05 1e-05 1e-05" WholeExtent="0 191 0 191 0 0">
    <Piece Extent="0 191 0 191 0 0">
      <CellData Scalars="T">
        <DataArray type="Float32" Name="T" format="ascii" NumberOfComponents="1">
648.983
15000
15000
15000
15000
15000
15000
15000
15000
15000
15000
15000
15000
15000
15000
15000
15000
15000
15000
15000
15000
15000
15000
15000
15000
15000
15000
15000
15000
15000
15000
15000
15000
15000
15000
15000
15000
14999.9
14999.9
14999.9
14999.9
14999.9
14999.8
14999.8
14999.7
14999.6
14999.6
14999.4
14999.3
14999.1
14998.9
14998.7
14998.4
14998
14997.6
14997
14996.4
14995.6
14994.6
14993.5
14992.2
14990.6
14988.8
14986.6
14984
14981
14977.5
14973.4
14968.6
14963.1
14956.7
14949.3
14940.9
14931.2
14920.2
14907.6
14893.3
14877.1
14858.8
14838.2
14815.1
14789.1
14760.2
14728
14692.1
14652.5
14608.6
14560.3
14507.3
14449.1
14385.6
14316.4
14241.1
14159.6
14071.5
13976.4
13874.3
13764.8
13647.7
13522.8
13390
13249.2
13100.2
12943
12777.7
12604.2
12422.6
12233.1
12035.9
11831.2
11619.3
11400.5
11175.2
10943.8
10706.9
10464.9
10218.4
9968.05
9714.43
9458.21
9200.08
8940.74
8680.92
8421.34
8162.73
7905.83
7651.35
7400
7152.47
6909.42
6671.51
6439.32
6213.44
5994.4
5782.68
5578.73
5382.94
5195.67
5017.21
4847.81
4687.67
4536.95
4395.73
4264.08
4142
4029.45
3926.36
3832.61
3748.04
3672.47
3605.67
3547.41
3497.42
3455.39
3421.02
3393.98
3373.94
3360.53
3353.4
3352.19
3356.52
3366.03
3380.34
3399.09
3421.9
3448.42
3478.29
3511.16
3546.67
3584.51
3624.33
3665.83
3708.68
3752.59
3797.26
3842.4
3887.69
3932.84
3977.48
4021.16
4063.25
4102.75
4137.98
4165.92
4180.98
4172.71
4121.18
3988.08
3698.32
3100.39
1871.7
332.221
2372.56
15000
15000
15000
15000
15000
15000
15000
15000
15000
15000
15000
15000
15000
15000
15000
15000
15000
15000
15000
15000
15000
15000
15000
15000
15000
15000
15000
15000
15000
15000
15000
15000
15000
15000
15000
15000
14999.9
14999.9
14999.9
14999.9
14999.9
14999.8
14999.8
14999.7
14999.6
14999.6
14999.4
14999.3
14999.1
14998.9
14998.7
14998.4
14998
14997.6
14997
14996.4
14995.6
14994.7
14993.5
14992.2
14990.6
14988.8
14986.6
14984
14981
14977.5
14973.4
14968.6
14963.1
14956.7
14949.3
14940.9
14931.2
14920.2
14907.6
14893.3
14877.1
14858.8
14838.2
14815.1
14789.2
14760.2
14728
14692.2
14652.5
14608.7
14560.4
14507.3
14449.2
14385.7
14316.5
14241.2
14159.7
14071.6
13976.6
13874.4
13764.9
13647.9
13523
13390.2
13249.4
13100.4
12943.2
12777.9
12604.4
12422.8
12233.4
12036.1
11831.4
11619.5
11400.7
11175.4
10944
10707.1
10465.1
10218.6
9968.23
9714.58
9458.34
9200.19
8940.82
8680.97
8421.36
8162.71
7905.77
7651.24
7399.84
7152.26
6909.16
6671.19
6438.94
6213
5993.88
5782.09
5578.07
5382.21
5194.86
5016.32
4846.84
4686.61
4535.8
4394.5
4262.76
4140.59
4027.95
3924.77
3830.92
3746.27
3670.6
3603.72
3545.37
3495.29
3453.18
3418.72
3391.6
3371.47
3357.99
3350.78
3349.5
3353.76
3363.2
3377.45
3396.13
3418.89
3445.35
3475.17
3507.98
3543.46
3581.25
3621.04
3662.5
3705.33
3749.22
3793.87
3838.98
3884.27
3929.41
3974.05
4017.73
4059.83
4099.35
4134.62
4162.65
4177.94
4170.21
4120.17
3991.44
3715.91
3168.91
2140.86
493.996
2398.38
15000
15000
15000
15000
15000
15000
15000
15000
15000
15000
15000
14999.9
14999.9
14999.9
14999.9
14999.9
14999.9
14999.9
15000
15000
15000
15000
15000
15000
15000
15000
15000
15000
15000
15000
15000
15000
15000
15000
15000
15000
14999.9
14999.9
14999.9
14999.9
14999.9
14999.8
14999.8
14999.7
14999.6
14999.6
14999.4
14999.3
14999.1
14998.9
14998.7
14998.4
14998
14997.6
14997
14996.4
14995.6
14994.7
14993.5
14992.2
14990.6
14988.8
14986.6
14984
14981
14977.5
14973.4
14968.6
14963.1
14956.7
14949.4
14940.9
14931.2
14920.2
14907.6
14893.3
14877.1
14858.9
14838.3
14815.2
14789.3
14760.3
14728.1
14692.3
14652.6
14608.8
14560.5
14507.5
14449.4
14385.9
14316.7
14241.5
14159.9
14071.8
13976.8
13874.7
13765.2
13648.2
13523.3
13390.6
13249.7
13100.8
12943.6
12778.3
12604.8
12423.3
12233.8
12036.6
11831.9
11620
11401.2
11175.8
10944.5
10707.5
10465.5
10219
9968.58
9714.9
9458.61
9200.41
8940.99
8681.07
8421.39
8162.67
7905.64
7651.03
7399.53
7151.85
6908.64
6670.55
6438.18
6212.11
5992.86
5780.93
5576.76
5380.75
5193.24
5014.54
4844.89
4684.5
4533.52
4392.04
4260.13
4137.78
4024.96
3921.6
3827.57
3742.74
3666.89
3599.83
3541.31
3491.05
3448.76
3414.14
3386.85
3366.56
3352.92
3345.56
3344.13
3348.25
3357.55
3371.67
3390.23
3412.87
3439.22
3468.93
3501.65
3537.04
3574.75
3614.47
3655.87
3698.64
3742.48
3787.09
3832.17
3877.44
3922.56
3967.19
4010.88
4052.99
4092.56
4127.91
4156.1
4171.72
4164.75
4116.49
3992.05
3726.81
3202.49
2206.29
487.38
2362.11
15000
15000
15000
15000
15000
15000
15000
14999.9
14999.9
14999.9
14999.9
14999.9
14999.9
14999.9
14999.9
14999.9
14999.9
14999.9
14999.9
14999.9
14999.9
14999.9
14999.9
15000
15000
15000
15000
15000
15000
15000
15000
15000
15000
15000
15000
15000
14999.9
14999.9
14999.9
14999.9
14999.9
14999.8
14999.8
14999.7
14999.6
14999.6
14999.4
14999.3
14999.1
14998.9
14998.7
14998.4
14998
14997.6
14997
14996.4
14995.6
14994.7
14993.5
14992.2
14990.6
14988.8
14986.6
14984
14981
14977.5
14973.4
14968.6
14963.1
14956.7
14949.4
14941
14931.3
14920.2
14907.7
14893.4
14877.2
14858.9
14838.4
14815.3
14789.4
14760.4
14728.2
14692.4
14652.8
14609
14560.7
14507.7
14449.6
14386.1
14317
14241.8
14160.3
14072.2
13977.2
13875.1
13765.7
13648.6
13523.8
13391.1
13250.3
13101.4
12944.2
12778.9
12605.5
12423.9
12234.5
12037.3
11832.6
11620.7
11401.8
11176.5
10945.1
10708.2
10466.1
10219.6
9969.1
9715.37
9459.02
9200.74
8941.24
8681.23
8421.45
8162.62
7905.47
7650.72
7399.08
7151.24
6907.87
6669.61
6437.06
6210.79
5991.34
5779.2
5574.81
5378.57
5190.83
5011.89
4842
4681.36
4530.12
4388.39
4256.21
4133.59
4020.51
3916.88
3822.58
3737.47
3661.36
3594.04
3535.25
3484.72
3442.18
3407.3
3379.77
3359.24
3345.36
3337.77
3336.12
3340.02
3349.12
3363.04
3381.42
3403.88
3430.07
3459.63
3492.2
3527.46
3565.05
3604.66
3645.97
3688.65
3732.42
3776.97
3822
3867.23
3912.33
3956.95
4000.64
4042.78
4082.39
4117.84
4146.21
4162.19
4155.95
4109.15
3987.59
3727.51
3209.79
2209.69
479.765
2348.6
15000
15000
15000
15000
14999.9
14999.9
14999.9
14999.9
14999.9
14999.8
14999.8
14999.8
14999.8
14999.8
14999.8
14999.8
14999.8
14999.8
14999.8
14999.9
14999.9
14999.9
14999.9
14999.9
14999.9
14999.9
15000
15000
15000
15000
15000
15000
15000
15000
15000
15000
14999.9
14999.9
14999.9
14999.9
14999.9
14999.8
14999.8
14999.7
14999.6
14999.6
14999.5
14999.3
14999.1
14998.9
14998.7
14998.4
14998
14997.6
14997
14996.4
14995.6
14994.7
14993.5
14992.2
14990.7
14988.8
14986.6
14984
14981
14977.5
14973.4
14968.7
14963.1
14956.8
14949.4
14941
14931.3
14920.3
14907.7
14893.5
14877.3
14859
14838.5
14815.4
14789.5
14760.6
14728.4
14692.6
14653
14609.2
14561
14508
14450
14386.5
14317.3
14242.2
14160.7
14072.7
13977.8
13875.7
13766.3
13649.3
13524.5
13391.8
13251
13102.1
12945.1
12779.8
12606.3
12424.8
12235.4
12038.2
11833.5
11621.6
11402.8
11177.4
10946
10709
10466.9
10220.3
9969.8
9716
9459.56
9201.19
8941.58
8681.45
8421.53
8162.56
7905.24
7650.32
7398.49
7150.45
6906.87
6668.37
6435.58
6209.06
5989.35
5776.93
5572.25
5375.71
5187.66
5008.41
4838.19
4677.22
4525.64
4383.56
4251.03
4128.06
4014.62
3910.63
3815.98
3730.52
3654.05
3586.37
3527.23
3476.36
3433.48
3398.26
3370.4
3349.55
3335.35
3327.46
3325.51
3329.14
3337.96
3351.62
3369.75
3391.98
3417.95
3447.3
3479.69
3514.77
3552.2
3591.67
3632.84
3675.41
3719.08
3763.55
3808.52
3853.7
3898.77
3943.37
3987.07
4029.23
4068.9
4104.45
4133
4149.31
4143.67
4097.93
3978.18
3720.81
3206.17
2207.2
473.676
2339.12
15000
15000
15000
14999.9
14999.9
14999.8
14999.8
14999.8
14999.7
14999.7
14999.7
14999.6
14999.6
14999.6
14999.6
14999.7
14999.7
14999.7
14999.7
14999.8
14999.8
14999.8
14999.8
14999.9
14999.9
14999.9
14999.9
14999.9
14999.9
15000
15000
15000
15000
15000
15000
15000
14999.9
14999.9
14999.9
14999.9
14999.9
14999.8
14999.8
14999.7
14999.7
14999.6
14999.5
14999.3
14999.1
14998.9
14998.7
14998.4
14998
14997.6
14997
14996.4
14995.6
14994.7
14993.6
14992.2
14990.7
14988.8
14986.6
14984.1
14981.1
14977.5
14973.4
14968.7
14963.2
14956.8
14949.5
14941.1
14931.4
14920.4
14907.8
14893.6
14877.4
14859.2
14838.6
14815.5
14789.7
14760.8
14728.6
14692.9
14653.3
14609.5
14561.3
14508.4
14450.4
14386.9
14317.8
14242.7
14161.3
14073.3
13978.4
13876.4
13767
13650.1
13525.3
13392.7
13252
13103.1
12946.1
12780.8
12607.4
12425.9
12236.5
12039.3
11834.7
11622.7
11403.9
11178.6
10947.1
10710.1
10467.9
10221.3
9970.69
9716.79
9460.25
9201.76
8942.02
8681.74
8421.66
8162.49
7904.98
7649.84
7397.78
7149.49
6905.64
6666.86
6433.77
6206.94
5986.89
5774.13
5569.09
5372.19
5183.75
5004.1
4833.49
4672.1
4520.1
4377.6
4244.63
4121.23
4007.35
3902.92
3807.83
3721.92
3645.01
3576.89
3517.31
3466.02
3422.71
3387.08
3358.8
3337.55
3322.97
3314.7
3312.39
3315.66
3324.14
3337.48
3355.3
3377.24
3402.93
3432.03
3464.18
3499.04
3536.27
3575.55
3616.57
3659
3702.54
3746.91
3791.8
3836.91
3881.94
3926.52
3970.21
4012.4
4052.13
4087.78
4116.51
4133.11
4127.94
4082.99
3964.46
3708.97
3197.91
2211.47
462.237
2335.58
15000
15000
14999.9
14999.8
14999.8
14999.7
14999.6
14999.5
14999.5
14999.4
14999.4
14999.4
14999.4
14999.4
14999.4
14999.4
14999.4
14999.5
14999.5
14999.6
14999.6
14999.7
14999.7
14999.8
14999.8
14999.8
14999.9
14999.9
14999.9
14999.9
14999.9
15000
15000
15000
15000
15000
14999.9
14999.9
14999.9
14999.9
14999.9
14999.8
14999.8
14999.7
14999.7
14999.6
14999.5
14999.3
14999.1
14998.9
14998.7
14998.4
14998
14997.6
14997
14996.4
14995.6
14994.7
14993.6
14992.2
14990.7
14988.8
14986.6
14984.1
14981.1
14977.6
14973.5
14968.7
14963.2
14956.9
14949.5
14941.1
14931.5
14920.5
14907.9
14893.7
14877.5
14859.3
14838.8
14815.7
14789.9
14761
14728.9
14693.2
14653.6
14609.9
14561.7
14508.8
14450.8
14387.5
14318.4
14243.3
14162
14074
13979.2
13877.2
13767.9
13651
13526.3
13393.7
13253.1
13104.3
12947.3
12782.1
12608.7
12427.2
12237.9
12040.7
11836
11624.1
11405.3
11179.9
10948.4
10711.4
10469.2
10222.4
9971.75
9717.75
9461.09
9202.46
8942.56
8682.1
8421.82
8162.44
7904.69
7649.3
7396.96
7148.37
6904.2
6665.09
6431.65
6204.44
5984
5770.83
5565.38
5368.03
5179.15
4999.03
4827.93
4666.06
4513.57
4370.55
4237.08
4113.15
3998.75
3893.8
3798.18
3711.74
3634.31
3565.67
3505.57
3453.76
3409.95
3373.82
3345.06
3323.33
3308.28
3299.56
3296.81
3299.66
3307.75
3320.7
3338.15
3359.74
3385.11
3413.9
3445.76
3480.35
3517.35
3556.41
3597.23
3639.48
3682.88
3727.12
3771.91
3816.95
3861.92
3906.47
3950.16
3992.37
4032.16
4067.91
4096.8
4113.66
4108.89
4064.52
3946.75
3691.8
3178.64
2175.14
455.599
2308.14
15000
14999.9
14999.8
14999.7
14999.5
14999.4
14999.2
14999.1
14999
14998.9
14998.9
14998.9
14998.9
14998.9
14998.9
14999
14999.1
14999.1
14999.2
14999.3
14999.4
14999.5
14999.6
14999.6
14999.7
14999.7
14999.8
14999.8
14999.9
14999.9
14999.9
14999.9
14999.9
14999.9
14999.9
14999.9
14999.9
14999.9
14999.9
14999.9
14999.9
14999.8
14999.8
14999.7
14999.7
14999.6
14999.5
14999.3
14999.1
14998.9
14998.7
14998.4
14998
14997.6
14997
14996.4
14995.6
14994.7
14993.6
14992.3
14990.7
14988.8
14986.7
14984.1
14981.1
14977.6
14973.5
14968.8
14963.3
14956.9
14949.6
14941.2
14931.6
14920.6
14908
14893.8
14877.7
14859.5
14839
14815.9
14790.1
14761.3
14729.2
14693.5
14654
14610.3
14562.2
14509.3
14451.4
14388.1
14319.1
14244.1
14162.7
14074.8
13980.1
13878.2
13768.9
13652.1
13527.5
13394.9
13254.3
13105.6
12948.7
12783.5
12610.2
12428.8
12239.4
12042.3
11837.6
11625.7
11406.9
11181.5
10950
10712.9
10470.6
10223.8
9972.99
9718.88
9462.08
9203.29
8943.2
8682.55
8422.04
8162.41
7904.39
7648.7
7396.05
7147.12
6902.59
6663.09
6429.24
6201.6
5980.72
5767.08
5561.14
5363.28
5173.88
4993.23
4821.58
4659.15
4506.08
4362.48
4228.41
4103.89
3988.89
3883.33
3787.1
3700.06
3622.02
3552.77
3492.08
3439.68
3395.28
3358.58
3329.26
3306.98
3291.39
3282.15
3278.89
3281.26
3288.87
3301.38
3318.4
3339.58
3364.57
3393
3424.53
3458.82
3495.53
3534.33
3574.92
3616.98
3660.2
3704.29
3748.96
3793.91
3838.81
3883.32
3927
3969.24
4009.07
4044.93
4073.98
4091.08
4086.66
4042.81
3925.76
3671.69
3159.24
2155.77
451.586
2304.1
15000
14999.8
14999.6
14999.3
14999
14998.8
14998.6
14998.4
14998.2
14998.2
14998.1
14998.1
14998.1
14998.2
14998.3
14998.4
14998.5
14998.6
14998.8
14998.9
14999.1
14999.2
14999.3
14999.4
14999.5
14999.6
14999.7
14999.8
14999.8
14999.8
14999.9
14999.9
14999.9
14999.9
14999.9
14999.9
14999.9
14999.9
14999.9
14999.9
14999.9
14999.8
14999.8
14999.7
14999.7
14999.6
14999.5
14999.3
14999.2
14998.9
14998.7
14998.4
14998
14997.6
14997
14996.4
14995.6
14994.7
14993.6
14992.3
14990.7
14988.9
14986.7
14984.1
14981.1
14977.6
14973.6
14968.8
14963.3
14957
14949.7
14941.3
14931.7
14920.7
14908.2
14894
14877.9
14859.7
14839.2
14816.2
14790.4
14761.6
14729.6
14693.9
14654.4
14610.8
14562.7
14509.9
14452
14388.8
14319.8
14244.9
14163.6
14075.8
13981.1
13879.3
13770.1
13653.3
13528.8
13396.3
13255.8
13107.1
12950.2
12785.1
12611.9
12430.5
12241.2
12044.1
11839.5
11627.5
11408.7
11183.3
10951.8
10714.6
10472.2
10225.3
9974.43
9720.17
9463.22
9204.25
8943.97
8683.08
8422.32
8162.42
7904.09
7648.07
7395.06
7145.75
6900.81
6660.88
6426.57
6198.46
5977.07
5762.91
5556.41
5357.99
5168
4986.75
4814.48
4651.41
4497.7
4353.45
4218.71
4093.52
3977.84
3871.59
3774.68
3686.95
3608.23
3538.3
3476.93
3423.86
3378.8
3341.46
3311.49
3288.59
3272.4
3262.57
3258.74
3260.55
3267.63
3279.63
3296.16
3316.89
3341.44
3369.46
3400.61
3434.54
3470.93
3509.45
3549.77
3591.6
3634.62
3678.54
3723.06
3767.9
3812.72
3857.19
3900.85
3943.09
3982.99
4018.94
4048.14
4065.48
4061.43
4018.14
3902.03
3649.75
3142.01
2156.04
450.952
2316.89
15000
14999.6
14999.1
14998.6
14998.1
14997.7
14997.4
14997.2
14997
14996.9
14996.9
14996.9
14997
14997.1
14997.3
14997.4
14997.7
14997.9
14998.1
14998.3
14998.6
14998.8
14999
14999.1
14999.3
14999.4
14999.5
14999.6
14999.7
14999.8
14999.8
14999.9
14999.9
14999.9
14999.9
14999.9
14999.9
14999.9
14999.9
14999.9
14999.9
14999.8
14999.8
14999.7
14999.7
14999.6
14999.5
14999.3
14999.2
14998.9
14998.7
14998.4
14998
14997.6
14997
14996.4
14995.6
14994.7
14993.6
14992.3
14990.7
14988.9
14986.7
14984.2
14981.2
14977.7
14973.6
14968.9
14963.4
14957.1
14949.8
14941.4
14931.8
14920.8
14908.3
14894.1
14878.1
14859.9
14839.5
14816.5
14790.7
14762
14729.9
14694.4
14654.9
14611.3
14563.3
14510.6
14452.7
14389.5
14320.7
14245.8
14164.6
14076.9
13982.3
13880.5
13771.4
13654.7
13530.3
13397.9
13257.4
13108.8
12952
12787
12613.8
12432.5
12243.2
12046.1
11841.5
11629.6
11410.7
11185.3
10953.7
10716.5
10474.1
10227.1
9976.05
9721.65
9464.53
9205.36
8944.85
8683.72
8422.68
8162.47
7903.81
7647.43
7394.03
7144.3
6898.91
6658.5
6423.69
6195.04
5973.1
5758.35
5551.25
5352.21
5161.57
4979.65
4806.7
4642.93
4488.5
4343.52
4208.05
4082.11
3965.67
3858.67
3761
3672.51
3593.03
3522.35
3460.23
3406.42
3360.63
3322.56
3291.89
3268.29
3251.42
3240.93
3236.47
3237.66
3244.15
3255.57
3271.57
3291.78
3315.84
3343.41
3374.13
3407.67
3443.69
3481.88
3521.9
3563.46
3606.25
3649.98
3694.34
3739.05
3783.78
3828.18
3871.81
3914.07
3954.01
3990.06
4019.42
4037
4033.35
3990.73
3875.88
3626.25
3124.63
2153.74
452.307
2360.21
15000
14998.9
14997.8
14997.1
14996.4
14995.9
14995.5
14995.2
14995.1
14995
14995
14995.1
14995.3
14995.6
14995.8
14996.2
14996.5
14996.8
14997.2
14997.5
14997.9
14998.2
14998.5
14998.7
14998.9
14999.1
14999.3
14999.5
14999.6
14999.7
14999.7
14999.8
14999.8
14999.9
14999.9
14999.9
14999.9
14999.9
14999.9
14999.9
14999.9
14999.8
14999.8
14999.7
14999.7
14999.6
14999.5
14999.3
14999.2
14999
14998.7
14998.4
14998
14997.6
14997.1
14996.4
14995.6
14994.7
14993.6
14992.3
14990.7
14988.9
14986.7
14984.2
14981.2
14977.7
14973.7
14968.9
14963.5
14957.1
14949.9
14941.5
14931.9
14921
14908.5
14894.3
14878.3
14860.2
14839.7
14816.8
14791.1
14762.4
14730.4
14694.8
14655.5
14611.9
14564
14511.3
14453.5
14390.4
14321.6
14246.8
14165.7
14078
13983.5
13881.9
13772.9
13656.3
13531.9
13399.6
13259.2
13110.7
12954
12789
12615.9
12434.6
12245.4
12048.4
11843.8
11631.9
11413
11187.5
10955.9
10718.6
10476.1
10229
9977.86
9723.31
9466
9206.62
8945.87
8684.47
8423.13
8162.59
7903.57
7646.79
7392.96
7142.77
6896.9
6655.97
6420.61
6191.38
5968.83
5753.46
5545.7
5345.97
5154.63
4971.98
4798.29
4633.76
4478.55
4332.77
4196.5
4069.75
3952.49
3844.66
3746.16
3656.84
3576.53
3505.03
3442.09
3387.46
3340.87
3302.01
3270.56
3246.2
3228.59
3217.38
3212.21
3212.72
3218.56
3229.36
3244.76
3264.39
3287.92
3314.98
3345.23
3378.33
3413.95
3451.76
3491.46
3532.72
3575.25
3618.76
3662.93
3707.49
3752.11
3796.43
3840.03
3882.29
3922.27
3958.42
3987.94
4005.79
4002.56
3960.68
3847.15
3599.93
3102.3
2134.46
450.843
2402.13
15000
14997
14994.9
14994
14993.5
14993.1
14992.7
14992.4
14992.4
14992.4
14992.5
14992.8
14993.1
14993.5
14993.9
14994.4
14994.9
14995.5
14996
14996.5
14997
14997.4
14997.8
14998.2
14998.5
14998.8
14999
14999.2
14999.4
14999.5
14999.6
14999.7
14999.8
14999.8
14999.9
14999.9
14999.9
14999.9
14999.9
14999.9
14999.9
14999.8
14999.8
14999.7
14999.7
14999.6
14999.5
14999.3
14999.2
14999
14998.7
14998.4
14998
14997.6
14997.1
14996.4
14995.6
14994.7
14993.6
14992.3
14990.8
14988.9
14986.8
14984.2
14981.2
14977.8
14973.7
14969
14963.5
14957.2
14950
14941.6
14932.1
14921.1
14908.7
14894.5
14878.5
14860.4
14840
14817.1
14791.5
14762.8
14730.8
14695.4
14656
14612.6
14564.7
14512.1
14454.4
14391.3
14322.6
14247.9
14166.9
14079.3
13984.9
13883.3
13774.4
13657.9
13533.7
13401.4
13261.2
13112.7
12956.1
12791.2
12618.1
12437
12247.8
12050.8
11846.2
11634.3
11415.5
11190
10958.3
10721
10478.4
10231.2
9979.87
9725.15
9467.64
9208.04
8947.03
8685.34
8423.68
8162.78
7903.37
7646.17
7391.89
7141.21
6894.81
6653.33
6417.38
6187.53
5964.33
5748.27
5539.81
5339.35
5147.25
4963.82
4789.32
4623.97
4467.92
4321.29
4184.15
4056.52
3938.38
3829.66
3730.26
3640.05
3558.84
3486.44
3422.62
3367.11
3319.65
3279.93
3247.64
3222.46
3204.04
3192.04
3186.11
3185.89
3191.01
3201.13
3215.87
3234.89
3257.83
3284.33
3314.06
3346.68
3381.86
3419.27
3458.59
3499.53
3541.77
3585.02
3628.99
3673.38
3717.86
3762.1
3805.65
3847.9
3887.92
3924.16
3953.85
3971.97
3969.19
3928.06
3815.79
3570.61
3075.86
2109.81
447.661
2427.17
15000
14993.4
14989.4
14988.8
14989.1
14989.2
14989
14988.9
14988.9
14989.1
14989.4
14989.8
14990.3
14990.9
14991.6
14992.3
14993
14993.7
14994.4
14995.1
14995.8
14996.4
14997
14997.5
14998
14998.4
14998.7
14999
14999.2
14999.4
14999.5
14999.6
14999.7
14999.8
14999.8
14999.9
14999.9
14999.9
14999.9
14999.9
14999.9
14999.8
14999.8
14999.7
14999.7
14999.6
14999.5
14999.3
14999.2
14999
14998.7
14998.4
14998
14997.6
14997.1
14996.4
14995.7
14994.7
14993.6
14992.3
14990.8
14989
14986.8
14984.3
14981.3
14977.8
14973.8
14969.1
14963.6
14957.3
14950.1
14941.7
14932.2
14921.3
14908.9
14894.8
14878.8
14860.7
14840.3
14817.5
14791.9
14763.2
14731.4
14695.9
14656.7
14613.3
14565.5
14512.9
14455.3
14392.3
14323.7
14249.1
14168.2
14080.7
13986.4
13884.9
13776.1
13659.7
13535.6
13403.5
13263.3
13114.9
12958.4
12793.6
12620.6
12439.5
12250.4
12053.4
11848.9
11637
11418.2
11192.7
10961
10723.5
10480.9
10233.5
9982.07
9727.17
9469.46
9209.62
8948.34
8686.34
8424.34
8163.07
7903.25
7645.6
7390.83
7139.63
6892.68
6650.6
6414.03
6183.52
5959.63
5742.85
5533.63
5332.39
5139.48
4955.22
4779.87
4613.64
4456.7
4309.16
4171.1
4042.53
3923.44
3813.77
3713.41
3622.24
3540.07
3466.72
3401.95
3345.5
3297.1
3256.47
3223.28
3197.2
3177.92
3165.08
3158.32
3157.31
3161.66
3171.04
3185.08
3203.43
3225.72
3251.63
3280.79
3312.89
3347.58
3384.54
3423.47
3464.04
3505.96
3548.94
3592.67
3636.87
3681.2
3725.33
3768.82
3811.05
3851.1
3887.43
3917.29
3935.7
3933.39
3893.07
3782.18
3539.27
3047.97
2087
446.417
2435
15000
14990.1
14984.4
14983.9
14984.8
14985.3
14985.2
14985.2
14985.2
14985.5
14985.9
14986.5
14987.2
14987.9
14988.8
14989.7
14990.7
14991.7
14992.6
14993.6
14994.5
14995.3
14996
14996.7
14997.3
14997.8
14998.3
14998.6
14998.9
14999.2
14999.4
14999.5
14999.6
14999.7
14999.8
14999.8
14999.9
14999.9
14999.9
14999.9
14999.8
14999.8
14999.8
14999.7
14999.7
14999.6
14999.5
14999.3
14999.2
14999
14998.7
14998.4
14998.1
14997.6
14997.1
14996.4
14995.7
14994.8
14993.7
14992.4
14990.8
14989
14986.8
14984.3
14981.3
14977.9
14973.8
14969.2
14963.7
14957.4
14950.2
14941.9
14932.4
14921.5
14909.1
14895
14879
14861
14840.7
14817.9
14792.3
14763.7
14731.9
14696.5
14657.3
14614
14566.3
14513.8
14456.3
14393.4
14324.9
14250.3
14169.6
14082.2
13988
13886.6
13777.9
13661.7
13537.6
13405.6
13265.5
13117.3
12960.9
12796.2
12623.3
12442.2
12253.2
12056.3
11851.8
11639.9
11421.1
11195.5
10963.8
10726.3
10483.5
10236.1
9984.47
9729.39
9471.46
9211.37
8949.81
8687.49
8425.13
8163.46
7903.21
7645.09
7389.81
7138.07
6890.53
6647.83
6410.6
6179.4
5954.78
5737.23
5527.22
5325.16
5131.4
4946.26
4770
4602.85
4444.96
4296.46
4157.42
4027.86
3907.77
3797.09
3695.72
3603.53
3520.35
3445.98
3380.2
3322.75
3273.37
3231.75
3197.6
3170.58
3150.38
3136.63
3129
3127.13
3130.67
3139.26
3152.54
3170.17
3191.78
3217.04
3245.6
3277.12
3311.29
3347.77
3386.25
3426.43
3468.01
3510.68
3554.15
3598.13
3642.29
3686.3
3729.7
3771.9
3811.98
3848.39
3878.42
3897.13
3895.34
3855.95
3746.83
3507.77
3026.42
2095.85
453.772
2432.44
15000
14992.4
14987.1
14985
14984.1
14983.2
14982.4
14982
14981.9
14982
14982.4
14983
14983.8
14984.8
14985.8
14987
14988.2
14989.4
14990.6
14991.8
14992.9
14994
14994.9
14995.8
14996.5
14997.2
14997.8
14998.2
14998.6
14998.9
14999.2
14999.4
14999.5
14999.7
14999.7
14999.8
14999.8
14999.9
14999.9
14999.9
14999.8
14999.8
14999.8
14999.7
14999.7
14999.6
14999.5
14999.3
14999.2
14999
14998.7
14998.4
14998.1
14997.6
14997.1
14996.4
14995.7
14994.8
14993.7
14992.4
14990.8
14989
14986.9
14984.4
14981.4
14977.9
14973.9
14969.2
14963.8
14957.5
14950.3
14942
14932.5
14921.7
14909.3
14895.2
14879.3
14861.3
14841.1
14818.3
14792.8
14764.3
14732.5
14697.2
14658
14614.8
14567.1
14514.8
14457.3
14394.6
14326.1
14251.7
14171
14083.8
13989.7
13888.4
13779.9
13663.7
13539.8
13407.9
13268
13119.8
12963.5
12798.9
12626.1
12445.1
12256.2
12059.3
11854.9
11643
11424.2
11198.6
10966.8
10729.3
10486.4
10238.8
9987.06
9731.79
9473.64
9213.29
8951.44
8688.79
8426.06
8163.98
7903.27
7644.66
7388.85
7136.54
6888.39
6645.04
6407.12
6175.19
5949.81
5731.47
5520.63
5317.7
5123.05
4936.99
4759.79
4591.67
4432.79
4283.28
4143.21
4012.61
3891.47
3779.73
3677.3
3584.04
3499.79
3424.35
3357.51
3299.01
3248.58
3205.93
3170.76
3142.75
3121.56
3106.87
3098.31
3095.54
3098.21
3105.96
3118.44
3135.29
3156.17
3180.74
3208.65
3239.56
3273.16
3309.13
3347.14
3386.89
3428.08
3470.41
3513.6
3557.33
3601.31
3645.17
3688.47
3730.62
3770.71
3807.2
3837.4
3856.42
3855.19
3816.8
3709.54
3474.08
2999.71
2081.7
458.637
2356.26
15000
14995.4
14991.1
14987.7
14985
14982.7
14981
14979.9
14979.4
14979.2
14979.4
14979.9
14980.7
14981.7
14982.9
14984.2
14985.6
14987.1
14988.5
14989.9
14991.3
14992.6
14993.7
14994.8
14995.7
14996.5
14997.2
14997.8
14998.3
14998.7
14999
14999.2
14999.4
14999.6
14999.7
14999.8
14999.8
14999.8
14999.9
14999.8
14999.8
14999.8
14999.8
14999.7
14999.7
14999.6
14999.5
14999.3
14999.2
14999
14998.7
14998.4
14998.1
14997.6
14997.1
14996.5
14995.7
14994.8
14993.7
14992.4
14990.9
14989.1
14986.9
14984.4
14981.4
14978
14974
14969.3
14963.9
14957.7
14950.5
14942.2
14932.7
14921.9
14909.5
14895.5
14879.6
14861.7
14841.5
14818.7
14793.3
14764.8
14733.1
14697.9
14658.8
14615.6
14568.1
14515.8
14458.4
14395.8
14327.4
14253.1
14172.6
14085.4
13991.4
13890.4
13781.9
13665.9
13542.1
13410.3
13270.5
13122.5
12966.3
12801.8
12629.1
12448.2
12259.3
12062.5
11858.1
11646.3
11427.5
11201.9
10970.1
10732.4
10489.5
10241.8
9989.85
9734.39
9476.01
9215.4
8953.24
8690.24
8427.13
8164.62
7903.45
7644.34
7387.98
7135.07
6886.29
6642.27
6403.63
6170.95
5944.78
5725.61
5513.91
5310.09
5114.51
4927.49
4749.3
4580.17
4420.26
4269.7
4128.56
3996.88
3874.65
3761.8
3658.25
3563.88
3478.51
3401.96
3334
3274.4
3222.88
3179.15
3142.92
3113.86
3091.65
3075.94
3066.41
3062.69
3064.44
3071.3
3082.93
3098.97
3119.08
3142.91
3170.13
3200.4
3233.39
3268.8
3306.3
3345.58
3386.36
3428.33
3471.2
3514.67
3558.43
3602.12
3645.31
3687.4
3727.48
3764.04
3794.41
3813.74
3813.09
3775.7
3670.2
3437.5
2965.85
2041.42
454.821
2309.06
15000
14997.1
14993.5
14989.9
14986.4
14983.4
14981
14979.3
14978.1
14977.5
14977.3
14977.5
14978.2
14979.1
14980.3
14981.7
14983.2
14984.8
14986.5
14988.1
14989.7
14991.2
14992.5
14993.8
14994.9
14995.8
14996.7
14997.4
14998
14998.4
14998.8
14999.1
14999.3
14999.5
14999.6
14999.7
14999.8
14999.8
14999.8
14999.8
14999.8
14999.8
14999.8
14999.7
14999.7
14999.6
14999.5
14999.3
14999.2
14999
14998.7
14998.4
14998.1
14997.6
14997.1
14996.5
14995.7
14994.8
14993.7
14992.4
14990.9
14989.1
14987
14984.4
14981.5
14978.1
14974.1
14969.4
14964
14957.8
14950.6
14942.4
14932.9
14922.1
14909.8
14895.8
14880
14862
14841.9
14819.2
14793.8
14765.4
14733.8
14698.6
14659.6
14616.5
14569
14516.8
14459.6
14397.1
14328.8
14254.7
14174.2
14087.2
13993.3
13892.4
13784.1
13668.2
13544.5
13412.9
13273.2
13125.3
12969.2
12804.9
12632.3
12451.5
12262.7
12066
11861.6
11649.8
11431
11205.4
10973.5
10735.8
10492.8
10244.9
9992.84
9737.18
9478.57
9217.68
8955.21
8691.86
8428.35
8165.41
7903.76
7644.12
7387.2
7133.69
6884.25
6639.54
6400.16
6166.71
5939.72
5719.7
5507.11
5302.36
5105.82
4917.82
4738.62
4568.44
4407.47
4255.82
4113.57
3980.77
3857.4
3743.4
3638.7
3543.17
3456.64
3378.93
3309.82
3249.07
3196.41
3151.56
3114.21
3084.06
3060.78
3044.03
3033.47
3028.76
3029.54
3035.48
3046.21
3061.39
3080.68
3103.74
3130.22
3159.81
3192.16
3226.97
3263.93
3302.72
3343.05
3384.62
3427.15
3470.33
3513.84
3557.34
3600.39
3642.4
3682.46
3719.08
3749.61
3769.27
3769.2
3732.88
3629.32
3400.29
2936
2028.38
455.969
2262.24
15000
14997.9
14995
14991.6
14988.2
14984.9
14982.1
14979.8
14978
14976.8
14976.2
14976.1
14976.4
14977.2
14978.3
14979.6
14981.2
14982.9
14984.7
14986.4
14988.2
14989.9
14991.4
14992.8
14994.1
14995.2
14996.1
14996.9
14997.6
14998.2
14998.6
14998.9
14999.2
14999.4
14999.6
14999.7
14999.7
14999.8
14999.8
14999.8
14999.8
14999.8
14999.8
14999.7
14999.7
14999.6
14999.5
14999.3
14999.2
14999
14998.7
14998.4
14998.1
14997.6
14997.1
14996.5
14995.7
14994.8
14993.7
14992.5
14990.9
14989.1
14987
14984.5
14981.6
14978.1
14974.2
14969.5
14964.1
14957.9
14950.8
14942.5
14933.1
14922.3
14910.1
14896.1
14880.3
14862.4
14842.3
14819.7
14794.3
14766
14734.4
14699.3
14660.5
14617.5
14570.1
14518
14460.9
14398.4
14330.3
14256.2
14175.9
14089
13995.3
13894.5
13786.3
13670.6
13547.1
13415.6
13276
13128.3
12972.3
12808.1
12635.6
12454.9
12266.2
12069.5
11865.2
11653.5
11434.6
11209.1
10977.2
10739.4
10496.2
10248.2
9996.02
9740.16
9481.31
9220.15
8957.36
8693.65
8429.74
8166.36
7904.22
7644.04
7386.54
7132.4
6882.3
6636.88
6396.75
6162.5
5934.68
5713.78
5500.28
5294.58
5097.06
4908.04
4727.79
4556.54
4394.47
4241.7
4098.32
3964.36
3839.82
3724.65
3618.76
3522.03
3434.31
3355.4
3285.1
3223.16
3169.32
3123.3
3084.8
3053.52
3029.12
3011.28
2999.66
2993.91
2993.69
2998.66
3008.46
3022.74
3041.18
3063.42
3089.13
3117.99
3149.66
3183.84
3220.22
3258.48
3298.33
3339.48
3381.63
3424.49
3467.73
3511.02
3553.91
3595.82
3635.84
3672.5
3703.19
3723.16
3723.71
3688.54
3587.23
3362.86
2909.17
2027.58
468.919
2232.49
15000
14998.4
14996.1
14993.2
14990
14986.8
14983.7
14981.1
14978.9
14977.2
14976.2
14975.6
14975.6
14976.1
14977
14978.2
14979.8
14981.5
14983.3
14985.1
14987
14988.8
14990.4
14992
14993.4
14994.6
14995.7
14996.5
14997.3
14997.9
14998.4
14998.8
14999.1
14999.3
14999.5
14999.6
14999.7
14999.8
14999.8
14999.8
14999.8
14999.8
14999.8
14999.7
14999.7
14999.6
14999.5
14999.3
14999.2
14999
14998.7
14998.4
14998.1
14997.7
14997.1
14996.5
14995.7
14994.8
14993.8
14992.5
14991
14989.2
14987
14984.6
14981.6
14978.2
14974.2
14969.6
14964.3
14958.1
14950.9
14942.7
14933.3
14922.6
14910.3
14896.4
14880.7
14862.8
14842.8
14820.2
14794.9
14766.7
14735.2
14700.1
14661.3
14618.4
14571.1
14519.2
14462.1
14399.8
14331.8
14257.9
14177.7
14091
13997.4
13896.7
13788.7
13673.1
13549.7
13418.4
13279
13131.4
12975.6
12811.4
12639
12458.5
12269.8
12073.3
11869
11657.3
11438.5
11212.9
10981
10743.1
10499.9
10251.8
9999.38
9743.32
9484.24
9222.79
8959.68
8695.61
8431.29
8167.46
7904.82
7644.1
7386.01
7131.24
6880.46
6634.31
6393.42
6158.36
5929.68
5707.89
5493.46
5286.79
5088.27
4898.21
4716.9
4544.55
4381.36
4227.45
4082.9
3947.76
3822.02
3705.63
3598.53
3500.57
3411.62
3331.48
3259.95
3196.79
3141.74
3094.52
3054.84
3022.38
2996.83
2977.87
2965.15
2958.33
2957.07
2961.02
2969.84
2983.2
3000.74
3022.12
3047.03
3075.12
3106.09
3139.61
3175.37
3213.07
3252.41
3293.1
3334.85
3377.35
3420.3
3463.34
3506.05
3547.84
3587.81
3624.49
3655.32
3675.61
3676.77
3642.78
3543.74
3323.84
2879.11
2017.06
474.56
2152.17
15000
14998.8
14996.9
14994.5
14991.7
14988.7
14985.7
14982.9
14980.5
14978.5
14977.1
14976.2
14975.8
14976
14976.6
14977.6
14979
14980.6
14982.4
14984.3
14986.1
14988
14989.7
14991.3
14992.8
14994.1
14995.3
14996.2
14997
14997.7
14998.2
14998.7
14999
14999.3
14999.5
14999.6
14999.7
14999.8
14999.8
14999.8
14999.8
14999.8
14999.8
14999.7
14999.7
14999.6
14999.5
14999.3
14999.2
14999
14998.7
14998.4
14998.1
14997.7
14997.1
14996.5
14995.8
14994.9
14993.8
14992.5
14991
14989.2
14987.1
14984.6
14981.7
14978.3
14974.3
14969.7
14964.4
14958.2
14951.1
14942.9
14933.5
14922.8
14910.6
14896.7
14881
14863.3
14843.2
14820.7
14795.5
14767.3
14735.9
14701
14662.3
14619.5
14572.3
14520.4
14463.5
14401.3
14333.4
14259.6
14179.6
14093
13999.6
13899
13791.2
13675.7
13552.5
13421.3
13282.1
13134.6
12978.9
12814.9
12642.7
12462.2
12273.7
12077.2
11873
11661.3
11442.5
11216.9
10985
10747.1
10503.7
10255.5
10002.9
9746.67
9487.34
9225.62
8962.18
8697.74
8433.02
8168.72
7905.58
7644.32
7385.63
7130.22
6878.75
6631.86
6390.19
6154.31
5924.77
5702.07
5486.69
5279.04
5079.5
4888.39
4705.99
4532.53
4368.2
4213.12
4067.38
3931.04
3804.08
3686.46
3578.11
3478.9
3388.69
3307.3
3234.51
3170.1
3113.81
3065.36
3024.46
2990.8
2964.07
2943.95
2930.09
2922.16
2919.83
2922.74
2930.56
2942.94
2959.55
2980.05
3004.12
3031.42
3061.63
3094.45
3129.56