<?xml version="1.0"?>
<VTKFile type="PolyData" version="0.1" byte_order="LittleEndian">
  <PolyData>
    <Piece NumberOfPoints="50000" NumberOfVerts="50000" NumberOfLines="0" NumberOfStrips="0" NumberOfPolys="0">
      <Points>
        <DataArray type="Float32" NumberOfComponents="3" format="ascii">
0.492604 0.00988438 0
-0.468882 0.0031458 0
0.477518 -0.00384775 0
0.498576 -0.0032341 0
-0.408153 0.00732867 0
-0.343028 0.00224452 0
0.163881 -0.0325174 0
-0.421515 -0.000413161 0
0.144475 -0.0254432 0
-0.0338571 0.010667 0
0.374633 -0.0161335 0
0.475419 0.00894545 0
-0.275063 0.00826811 0
-0.195688 -0.0306426 0
-0.512262 0.00241025 0
0.386327 0.0145398 0
-0.0720374 -0.00309121 0
0.494584 0.00141035 0
0.187264 0.00124067 0
-0.469559 0.00417556 0
-0.491861 0.00642357 0
0.428692 0.00775006 0
-0.485618 0.00274732 0
0.482058 -0.000641857 0
0.307114 -0.0162356 0
0.359308 0.0154006 0
-0.481773 -0.00973655 0
0.495098 -0.00481469 0
-0.345204 0.028609 0
-0.506827 0.0108351 0
-0.381795 0.0144953 0
-0.355165 -0.0208288 0
0.490349 0.00036237 0
0.493737 -0.00190503 0
0.0936745 0.00584779 0
0.501992 -0.00264218 0
0.152132 0.00133704 0
-0.502508 0.00276065 0
-0.470654 -0.00687281 0
-0.523011 -0.00348552 0
0.362202 0.0156976 0
0.382768 0.00705726 0
-0.480005 -0.00326212 0
0.487239 0.00024764 0
0.505082 0.00101647 0
-0.494361 0.0104254 0
0.480047 0.00548642 0
0.246137 -0.0189954 0
0.474016 -0.000184701 0
0.485279 -0.0003923 0
0.203464 0.0260943 0
-0.484574 -0.00162593 0
-0.337272 0.0112704 0
0.478931 0.0030106 0
-0.477143 0.00270082 0
-0.508689 0.00288623 0
0.493244 -0.00216973 0
0.199051 0.0138802 0
0.368999 0.00883294 0
0.509274 -0.00663002 0
0.415991 0.0053836 0
0.498472 0.00268868 0
0.109657 -0.0402152 0
0.509282 -0.00274262 0
-0.164821 0.0205055 0
-0.475647 0.00149626 0
0.484014 -0.00166942 0
0.497364 -0.00133057 0
0.514509 0.00445926 0
0.356048 0.00070978 0
-0.481387 0.00375816 0
0.483263 0.00408407 0
0.263685 0.00100235 0
0.269859 0.00795172 0
0.230013 0.00590966 0
-0.488291 -0.00333268 0
0.422832 0.0149354 0
-0.463772 0.00507878 0
0.372822 0.00801603 0
-0.507602 0.00177464 0
-0.256479 -0.0419234 0
-0.49721 0.00519129 0
0.456852 0.0057822 0
-0.483241 0.000586445 0
0.508646 -0.00635009 0
-0.484634 0.00386414 0
0.509561 -0.00623147 0
-0.218471 -0.0107926 0
-0.211448 0.0279568 0
-0.488624 -0.00895782 0
0.478866 0.00769887 0
-0.47799 -0.000972367 0
0.481441 -0.00267305 0
-0.329985 0.0237412 0
-0.0502795 -0.0271636 0
-0.430229 0.0062277 0
0.480362 0.0102119 0
-0.492905 0.00378537 0
-0.519905 0.00880453 0
-0.515777 -0.00146995 0
-0.432622 -0.00949983 0
-0.479756 -0.00711365 0
0.512974 -0.00122815 0
-0.208438 -0.0255816 0
0.516606 -0.00106353 0
0.423085 0.0151489 0
0.310872 0.00779602 0
0.0245965 0.00935053 0
0.474914 0.00514704 0
-0.486192 -0.00586767 0
-0.36715 0.023815 0
-0.493372 0.00367637 0
-0.421316 0.0126552 0
366.395 530.009 0
0.323849 0.00863201 0
-0.486297 0.00416191 0
-0.504244 0.00521161 0
9.41808 12.8837 0
-0.48972 0.00182336 0
-0.0254586 -0.0109646 0
0.495284 -0.00214126 0
-0.472362 -0.00482768 0
0.334164 -0.00464276 0
-0.45193 0.00882564 0
0.486221 -0.00122787 0
0.472543 -0.00154582 0
0.155211 0.0289255 0
0.499615 0.00502539 0
-0.43837 -0.00865392 0
0.377001 -0.00146687 0
0.502326 -0.00426376 0
0.498347 -0.000888305 0
-0.517901 0.000700716 0
-0.432133 0.00470757 0
0.510275 -0.00259216 0
0.484981 -0.00164484 0
0.467775 -0.00378733 0
-0.0784835 0.00354288 0
0.391233 -0.0176325 0
0.380575 -0.0148678 0
0.391067 -0.0179108 0
0.464138 0.0114081 0
0.501242 -0.00452539 0
-0.117131 -0.0173561 0
-0.501996 0.0079959 0
0.333059 -0.027818 0
-0.321944 0.0241935 0
-0.49526 0.00220441 0
-0.354651 -0.0245606 0
-0.496794 0.00427121 0
0.378396 0.00869248 0
0.481716 0.00240233 0
-0.151378 -0.0147126 0
0.392415 -0.0129184 0
0.390248 0.00987891 0
0.477614 0.00437439 0
0.327147 -0.0121714 0
-0.486769 0.00316345 0
-0.210574 -0.00759364 0
0.499807 -0.000849052 0
0.333918 -0.00235857 0
-0.441728 -0.00387783 0
-0.478268 0.00283841 0
-0.497243 0.00292033 0
-0.129133 0.0118984 0
0.385087 -0.00807671 0
0.435286 -0.00718668 0
0.440967 0.00414425 0
0.368324 0.00928668 0
-0.204867 0.000402757 0
0.51483 -0.00637453 0
-0.476754 0.00354584 0
-0.113692 -0.00751667 0
0.497452 0.00490908 0
-0.0916089 -0.00454137 0
-0.385393 0.0189045 0
-0.47804 0.00278476 0
-0.291406 -0.0137793 0
-0.484574 -0.00310302 0
-0.486659 -0.00830493 0
0.476993 -0.000500483 0
-0.492285 0.00757925 0
-0.484824 0.00635101 0
0.492379 0.00613346 0
0.480462 -0.00150971 0
0.37168 -0.0215089 0
0.515928 -0.00458093 0
0.51057 0.00013605 0
0.494952 -0.00491473 0
0.0550305 0.0358488 0
0.503413 -0.00487495 0
0.407776 -0.0115177 0
-0.329212 -0.022767 0
0.453914 0.00747359 0
-0.450696 0.00748668 0
0.476868 0.00173226 0
-0.401728 0.0140409 0
-0.427924 0.0061829 0
-0.480112 0.00442642 0
0.482815 0.00564 0
-0.321162 0.022855 0
0.50928 0.00292799 0
0.441742 -0.0070626 0
-0.101381 -0.0090082 0
0.515683 -0.00649864 0
-0.473038 -0.0100602 0
0.0669153 0.0582992 0
0.204255 -0.00849349 0
-0.428684 0.0127809 0
-0.302346 -0.0127663 0
0.472215 0.000307369 0
-0.211222 -0.0260071 0
0.445099 -0.00486211 0
-0.41432 0.0131657 0
-0.284394 -0.019675 0
-0.497171 0.0071326 0
-0.490545 0.00913139 0
0.48946 -0.000760815 0
-0.504436 -0.00203537 0
-0.0598132 0.0253782 0
-0.388225 0.0140354 0
-0.503322 0.00414372 0
-0.467553 -0.00815501 0
0.511387 -0.00401491 0
0.181078 0.0298786 0
-0.478316 0.00341778 0
0.514179 0.000992755 0
0.493115 -0.00143046 0
-0.425387 0.0116274 0
-0.501155 -0.00103668 0
-0.493176 -0.00499792 0
0.479626 0.00479464 0
0.250119 0.0285523 0
-0.0766758 0.0180283 0
-0.510522 0.00511337 0
-0.439722 0.00689056 0
0.377453 -0.02184 0
-0.387238 -0.00580011 0
-0.487952 0.00375772 0
0.298764 -0.00396462 0
0.504707 -0.000446068 0
-0.447891 -0.00862012 0
-0.493484 0.0038112 0
-0.286018 -0.01752 0
0.246373 0.00799968 0
0.44078 0.00473342 0
-0.46615 0.00828799 0
0.493544 -0.00142616 0
0.508331 0.00286074 0
0.291472 0.0149977 0
0.303994 0.00498573 0
-0.464154 0.00586569 0
0.476949 -0.00399453 0
-0.220109 -0.0118723 0
-0.449095 0.00963087 0
0.477585 -0.000748114 0
-0.435295 0.00938322 0
0.422933 0.0106323 0
0.18321 0.0283103 0
0.264196 -5.89342e-05 0
0.508038 0.000714336 0
-0.463982 0.00565418 0
0.0925412 -0.0104769 0
0.0460856 -0.0174879 0
-0.331169 0.00384724 0
-0.487154 0.000980704 0
-0.47985 0.00325137 0
-0.47637 -0.00202968 0
0.489184 -0.00166882 0
0.48551 -0.00138817 0
0.50009 -0.00157326 0
-0.491475 -0.00382449 0
0.320839 0.00338632 0
0.0262739 0.0149871 0
-0.513408 0.00583797 0
-0.499247 0.00247558 0
0.475116 -0.00089142 0
-0.477169 0.00335385 0
0.471983 0.00757633 0
-0.484019 -0.00210439 0
-0.469555 -0.000506215 0
-0.217872 -0.0284282 0
-0.49176 0.0026884 0
0.463956 -0.00308071 0
-0.418183 0.0127849 0
-0.471015 -0.00427909 0
-0.187282 0.0239949 0
-0.490259 0.00368105 0
-0.498103 0.00432849 0
0.418421 -0.00418199 0
-0.175221 0.00795 0
0.488516 -0.0015643 0
0.49925 -0.00397487 0
0.318392 0.0166269 0
0.507269 0.00365319 0
0.481333 0.00717064 0
0.505339 0.00476185 0
-0.337493 0.0281752 0
-0.460581 0.00218994 0
-0.512177 0.000803868 0
0.518166 0.000708483 0
-0.0697388 0.00866941 0
0.486916 -0.00257483 0
0.47512 0.00360868 0
0.501428 -0.00132828 0
0.0856408 0.0145563 0
-0.258864 0.0302504 0
0.422315 0.00618531 0
-0.0596609 0.000132014 0
-0.240915 0.0110781 0
-0.403012 0.0137741 0
0.488241 0.00770447 0
-0.356904 0.0174277 0
0.452113 -0.00695969 0
0.372523 -0.00619552 0
-0.510389 0.00735669 0
0.39756 -0.0183719 0
0.51277 -0.00677864 0
0.458534 -0.00408927 0
0.489877 0.00863075 0
-0.497948 0.00624798 0
-0.109616 0.0180439 0
0.500132 0.00213678 0
0.49773 -0.00156743 0
0.229685 0.0299426 0
-0.475089 -0.000857408 0
-0.466266 0.00582356 0
0.512443 0.000194893 0
-0.476723 -0.00402974 0
0.494065 0.00262261 0
0.497656 -0.00339497 0
0.238347 -0.0290217 0
0.476872 0.00390313 0
-0.489098 0.00373881 0
-0.418636 -0.00108251 0
-0.281285 -0.00343824 0
0.0391129 -0.00983524 0
0.0591641 -0.0363041 0
-0.448686 0.00379751 0
0.221709 -0.0321904 0
-0.052784 0.0493025 0
-0.504929 0.00713313 0
-0.361155 0.0163184 0
-0.492974 0.00513377 0
-0.204741 -0.016944 0
0.49728 0.00797786 0
-0.350742 0.0183732 0
-0.498875 -0.000354276 0
-81.4577 336.926 0
0.496238 -0.0068276 0
0.495003 -0.00175771 0
-0.406925 0.0169664 0
0.48114 0.00321982 0
0.456541 -0.00162188 0
-726.036 -1298.4 0
0.151641 0.0175369 0
-0.493803 0.0042564 0
-0.410886 -0.00333646 0
0.491572 0.00393264 0
5.11805 -10.5447 0
0.465324 0.00572336 0
-0.483238 -0.00761113 0
-0.308891 -8.6532e-07 0
-0.490756 -0.0042806 0
-0.500395 0.00794606 0
0.487855 -0.00161769 0
-0.508381 -0.002044 0
-0.440839 0.0108906 0
0.382961 0.0149921 0
-0.479052 -0.000213247 0
-0.399459 0.0169839 0
-0.443024 0.00972108 0
0.492998 0.00477999 0
0.44449 -0.0088873 0
-0.295267 0.0229555 0
0.506717 -0.00292059 0
-0.494004 -0.00716287 0
-0.459862 -0.00473726 0
-0.499371 0.00127515 0
0.0428699 -0.0384645 0
-0.480739 -0.00678804 0
0.486053 0.00481329 0
-0.490151 0.00421348 0
-0.48738 0.00216345 0
-0.120519 0.0181665 0
0.318423 0.0163979 0
-0.159857 0.0442622 0
0.104603 0.0249072 0
-0.494473 0.00451024 0
-0.0898137 0.00411217 0
-0.495329 -0.00144201 0
-0.497936 0.00644419 0
0.475147 -0.00749668 0
0.418753 0.0111779 0
-0.46601 0.00755459 0
0.441438 0.00558509 0
0.438676 0.00131783 0
-0.475196 0.00346598 0
-0.262649 -0.00895059 0
0.347098 -0.0213916 0
-0.475662 0.00076873 0
0.420311 -0.0112162 0
0.192209 -0.00618478 0
-0.489125 -0.00147825 0
0.456565 -0.00108587 0
0.480301 -0.00317729 0
0.487613 -0.00611718 0
0.496811 -0.00224909 0
0.505311 -0.000305178 0
0.47872 0.00805737 0
-0.492182 0.00312656 0
0.353474 0.0115097 0
-0.406892 -0.00642842 0
0.232196 0.0323887 0
-0.463417 0.00307452 0
-0.165921 -0.00711403 0
-0.384552 0.014092 0
0.139901 -0.0174308 0
-0.502442 0.00452044 0
0.479476 -0.00164441 0
-0.135833 0.0358785 0
0.171629 0.018732 0
-0.509212 0.00388023 0
0.482893 0.00195419 0
0.497868 -0.00116829 0
0.475739 0.0102233 0
0.508391 -0.00604465 0
-0.485502 0.00372523 0
-0.500854 0.00282671 0
0.494338 -0.00218281 0
[...]
      <PointData Scalars="T">
        <DataArray type="Float32" Name="T" format="ascii" NumberOfComponents="1">
318.347
466.386
317.147
317.147
466.386
466.386
317.147
481.035
317.147
466.386
317.147
318.347
466.386
481.035
466.386
318.347
481.035
311.896
307.291
466.386
466.386
318.347
466.386
317.147
317.147
318.347
481.035
317.147
466.386
466.386
466.386
481.035
317.149
317.147
318.347
317.147
307.876
466.386
481.035
481.035
318.347
318.347
481.035
325.066
303.084
466.386
318.347
317.147
317.147
317.147
318.347
481.035
466.386
318.347
466.386
466.386
317.147
318.347
318.347
317.147
318.347
318.347
317.147
317.147
466.386
1044.73
317.147
317.147
318.347
307.382
466.386
318.347
303.761
318.347
318.347
481.035
318.347
466.386
318.347
927.963
481.035
466.386
318.347
914.793
317.147
466.386
317.147
481.035
466.386
481.035
318.347
481.035
317.147
466.386
481.035
466.386
318.347
466.386
466.386
481.035
481.035
481.035
317.147
481.035
317.147
318.347
318.347
318.347
318.347
481.035
466.386
466.386
466.386
318.347
318.347
466.386
466.386
318.347
942.29
481.035
317.147
481.035
317.147
466.386
317.147
317.147
318.347
318.347
481.035
317.147
317.147
317.147
1102.01
466.386
317.147
317.147
317.147
466.386
317.147
317.147
317.147
318.347
317.147
481.035
466.386
317.147
466.386
466.386
481.035
466.386
318.347
318.347
481.035
317.147
318.347
318.347
317.147
466.386
481.035
317.147
317.147
481.035
466.386
466.386
466.386
317.147
317.147
318.347
318.347
942.818
317.147
466.386
481.035
318.347
481.035
466.386
466.386
481.035
481.035
481.035
317.147
466.386
466.386
318.347
317.147
317.147
317.147
333.449
317.147
318.347
317.147
317.147
481.035
318.347
466.386
331.386
466.386
466.386
466.386
318.347
466.386
318.347
317.147
481.035
317.147
481.035
318.347
317.147
466.386
481.035
322.939
481.035
317.147
466.386
481.035
466.386
466.386
317.147
481.035
466.386
466.386
466.386
481.035
317.147
318.347
466.386
303.661
317.147
466.386
481.035
481.035
318.347
318.347
466.386
466.386
466.386
317.147
481.035
466.386
317.147
317.147
481.035
466.386
481.035
318.347
318.347
466.386
317.147
318.347
318.347
318.347
466.386
317.147
481.035
466.386
317.147
466.386
318.347
318.347
317.147
307.067
466.386
317.147
317.147
466.386
949.041
466.386
481.035
317.147
317.147
317.147
481.035
318.347
318.347
466.386
466.386
317.147
466.386
318.347
481.035
481.035
481.035
466.386
317.147
466.386
481.035
466.386
466.386
466.386
317.147
466.386
317.147
317.147
318.347
318.347
318.347
318.347
466.386
466.386
960.759
307.382
466.386
317.147
318.347
317.147
318.347
466.386
318.347
907.747
466.386
466.386
318.347
466.386
317.147
317.147
466.386
317.147
317.147
317.147
318.347
466.386
466.386
318.347
317.147
318.347
481.035
466.386
328.85
481.035
318.347
317.147
317.147
318.347
466.386
481.035
481.035
317.147
317.147
466.386
317.147
466.386
466.386
466.386
466.386
481.035
318.347
466.386
481.035
466.386
317.147
317.147
466.386
318.347
317.147
481.035
318.347
466.386
481.035
318.347
317.147
318.347
481.035
481.035
481.035
466.386
317.147
481.035
466.386
318.347
481.035
466.386
466.386
318.347
317.147
466.386
317.147
481.035
481.035
1046.3
317.147
481.035
318.347
466.386
466.386
466.386
318.347
466.386
318.347
466.386
466.386
481.035
466.386
317.147
318.347
466.386
318.347
307.47
466.386
481.035
317.147
936.879
317.147
317.147
481.035
317.147
317.147
317.147
317.147
317.147
318.347
466.386
318.347
481.035
318.347
466.386
481.035
466.386
317.147
466.386
317.147
466.386
318.347
466.386
318.347
317.147
318.347
317.147
466.386
466.386
317.147
466.386
318.347
466.386
318.347
1066.06
481.035
466.386
466.386
318.347
309.363
466.386
317.147
873.604
481.035
481.035
466.386
481.035
318.347
317.147
481.035
318.347
481.035
481.035
317.147
317.147
481.035
466.386
928.906
481.035
312.164
481.035
317.147
466.386
481.035
317.147
318.347
481.035
481.035
466.386
466.386
318.347
941.421
317.147
317.147
318.347
466.386
466.386
466.386
317.147
318.347
481.035
481.035
481.035
466.386
308.35
318.347
317.147
305.624
466.386
318.347
318.347
303.619
466.386
318.347
317.147
481.035
317.147
466.386
466.386
466.386
481.035
481.035
481.035
481.035
481.035
317.147
317.147
317.147
318.347
317.147
318.347
318.347
481.035
318.347
466.386
317.147
318.347
466.386
318.347
466.386
929.651
466.386
481.035
318.347
317.147
318.347
317.147
317.147
317.147
466.386
318.347
318.347
876.746
318.347
886.469
466.386
481.035
317.147
317.147
466.386
466.386
481.035
481.035
481.035
318.347
318.347
318.347
318.347
481.035
466.386
318.347
466.386
322.142
318.347
481.035
466.386
317.147
466.386
318.347
318.347
481.035
318.347
481.035
317.147
996.189
466.386
307.188
317.147
481.035
481.035
993.887
466.386
466.386
318.347
317.147
317.147
309.777
318.347
481.035
928.031
481.035
481.035
466.386
318.347
317.147
466.386
318.347
481.035
303.359
318.347
317.147
466.386
318.347
481.035
1056.1
318.347
317.147
481.035
318.347
466.386
317.147
317.147
318.347
317.147
481.035
481.035
466.386
1092.78
318.347
481.035
317.147
481.035
481.035
318.347
317.147
481.035
481.035
466.386
466.386
317.147
317.147
466.386
481.035
481.035
318.347
317.147
466.386
466.386
317.147
317.147
318.347
318.347
466.386
481.035
481.035
481.035
481.035
318.347
466.386
318.347
318.347
481.035
466.386
317.147
317.147
481.035
466.386
317.147
481.035
481.035
466.386
317.147
481.035
466.386
318.347
466.386
466.386
317.147
318.347
466.386
318.347
317.147
466.386
318.347
317.147
466.386
466.386
317.147
317.147
317.147
318.347
318.347
481.035
481.035
466.386
466.386
318.347
466.386
481.035
315.478
318.347
466.386
466.386
466.386
317.147
318.347
318.347
318.347
466.386
317.147
317.147
998.805
466.386
318.347
317.147
318.347
318.347
318.347
466.386
318.347
318.347
317.147
466.386
318.347
466.386
317.147
318.347
317.147
318.347
317.147
466.386
318.347
466.386
318.347
466.386
466.386
466.386
317.147
481.035
318.347
466.386
317.147
318.347
481.035
317.147
994.479
481.035
481.035
466.386
466.386
466.386
317.147
317.147
317.147
317.147
317.147
896.903
318.347
466.386
481.035
317.147
317.147
466.386
312.164
466.386
318.347
466.386
466.386
466.386
481.035
481.035
315.164
466.386
318.347
466.386
481.035
466.386
481.035
481.035
317.147
318.347
317.147
466.386
481.035
466.386
466.386
481.035
466.386
481.035
318.347
466.386
481.035
317.147
317.147
317.147
466.386
466.386
481.035
318.347
481.035
307.876
466.386
481.035
481.035
318.347
317.147
318.347
328.71
317.147
466.386
466.386
317.147
466.386
318.347
466.386
318.347
466.386
481.035
318.347
466.386
321.599
466.386
466.386
317.147
307.443
481.035
318.347
317.147
316.279
318.347
466.386
481.035
481.035
318.347
466.386
328.718
318.347
317.147
317.147
481.035
466.386
335.973
466.386
466.386
317.147
317.147
318.347
317.147
466.386
481.035
318.347
466.386
318.347
318.347
466.386
466.386
318.347
1073.99
317.147
317.147
466.386
466.386
317.147
315.085
466.386
481.035
481.035
318.347
319.508
922.866
466.386
466.386
920.028
481.035
317.147
466.386
317.147
466.386
317.147
317.147
957.03
317.147
466.386
318.347
317.147
466.386
481.035
318.347
317.147
318.347
318.347
318.347
318.347
466.386
318.347
317.147
481.035
317.147
318.347
466.386
317.147
317.147
318.347
466.386
466.386
481.035
317.147
481.035
317.147
481.035
466.386
466.386
318.347
481.035
481.035
481.035
317.147
974.695
466.386
317.147
318.347
481.035
481.035
317.147
466.386
317.147
317.147
481.035
318.347
481.035
318.347
317.147
318.347
317.147
318.347
318.347
466.386
318.347
317.147
317.147
466.386
317.147
481.035
466.386
481.035
317.147
318.347
466.386
481.035
466.386
317.147
466.386
466.386
317.147
317.147
318.347
318.347
466.386
466.386
317.147
466.386
318.347
466.386
481.035
321.599
481.035
317.147
466.386
481.035
466.386
466.386
466.386
481.035
481.035
466.386
466.386
318.347
466.386
317.147
317.147
317.147
317.147
318.347
466.386
317.147
466.386
318.347
466.386
318.347
318.347
481.035
318.347
466.386
317.147
318.347
317.147
481.035
317.147
466.386
311.736
481.035
481.035
318.347
481.035
466.386
466.386
481.035
317.147
318.347
318.347
318.347
481.035
317.147
481.035
317.147
332.903
318.347
318.347
318.347
317.147
317.147
481.035
318.347
318.347
481.035
466.386
317.147
466.386
303.619
466.386
481.035
466.386
932.523
481.035
466.386
318.347
481.035
318.347
466.386
317.147
466.386
318.347
466.386
466.386
318.347
318.347
466.386
317.147
318.347
317.147
321.394
481.035
466.386
481.035
1100.8
317.147
466.386
317.147
466.386
466.386
317.147
317.147
466.386
318.347
317.147
317.147
317.147
466.386
317.147
318.347
466.386
466.386
466.386
481.035
466.386
317.147
466.386
317.147
481.035
318.347
317.147
318.347
466.386
481.035
481.035
466.386
317.147
318.347
481.035
317.147
305.781
481.035
481.035
317.147
466.386
311.984
317.147
318.347
481.035
466.386
466.386
466.386
318.347
1009.6
318.347
466.386
466.386
317.147
318.347
318.347
317.147
318.347
481.035
1000.34
481.035
466.386
317.147
318.347
318.347
318.347
318.347
318.347
481.035
466.386
466.386
466.386
481.035
466.386
466.386
317.147
317.147
317.147
317.147
317.147
466.386
317.147
466.386
316.058
481.035
466.386
318.347
466.386
1092.08
317.147
1066.26
317.147
317.147
317.147
317.147
318.347
318.347
317.147
318.347
481.035
303.556
466.386
318.347
318.347
317.147
481.035
317.147
481.035
318.347
318.347
318.347
318.347
466.386
317.147
466.386
318.347
317.147
317.147
1038.62
1037.79
1030.59
317.147
317.147
481.035
318.347
466.386
318.347
317.147
481.035
466.386
892.119
317.147
318.347
466.386
317.147
466.386
318.347
466.386
466.386
925.627
466.386
317.147
317.147
481.035
466.386
466.386
466.386
317.147
481.035
318.347
466.386
318.347
318.347
466.386
466.386
318.347
466.386
317.147
317.147
317.147
466.386
322.252
317.147
481.035
466.386
317.147
466.386
317.147
466.386
466.386
317.147
481.035
481.035
317.147
317.147
318.347
317.147
318.347
481.035
318.347
318.347
466.386
466.386
317.147
466.386
318.347
303.084
932.523
466.386
318.347
1040.31
886.1
305.579
317.147
481.035
466.386
317.147
466.386
466.386
481.035
481.035
466.386
317.147
317.147
466.386
466.386
317.147
481.035
317.147
318.347
318.347
466.386
466.386
317.147
886.1
318.347
466.386
318.347
317.147
466.386
317.147
317.147
481.035
466.386
481.035
481.035
466.386
466.386
466.386
466.386
318.347
317.147
317.147
466.386
317.147
466.386
466.386
317.147
466.386
466.386
318.347
466.386
481.035
317.147
481.035
481.035
318.347
466.386
318.347
318.347
317.147
317.147
466.386
318.347
320.038
466.386
466.386
318.347
466.386
466.386
317.147
317.147
317.147
481.035
317.147
466.386
328.718
317.147
466.386
466.386
466.386
317.147
317.147
466.386
466.386
466.386
481.035
318.347
481.035
317.147
481.035
481.035
317.147
318.347
317.147
481.035
318.347
317.147
318.347
949.327
317.147
975.065
481.035
466.386
466.386
481.035
481.035
481.035
318.347
318.347
481.035
466.386
466.386
317.147
466.386
466.386
466.386
481.035
481.035
317.147
317.147
318.347
466.386
318.347
318.347
317.147
481.035
317.147
348.573
318.347
312.544
318.347
466.386
974.822
1029.82
466.386
466.386
317.147
481.035
481.035
318.347
466.386
481.035
466.386
924.423
466.386
466.386
481.035
317.147
481.035
481.035
466.386
481.035
466.386
317.147
481.035
466.386
317.147
317.147
317.147
481.035
481.035
466.386
318.347
466.386
481.035
334.654
466.386
466.386
466.386
318.347
466.386
318.347
318.347
317.147
481.035
317.147
320.657
481.035
1009.6
317.147
318.347
481.035
466.386
466.386
317.147
466.386
481.035
466.386
318.347
318.347
317.147
318.347
481.035
466.386
466.386
317.147
318.347
466.386
318.347
318.347
481.035
481.035
481.035
318.347
318.347
318.347
466.386
318.347
974.695
318.347
466.386
466.386
466.386
318.347
317.147
317.147
317.147
481.035
317.147
317.147
951.435
466.386
318.347
318.347
317.147
466.386
317.147
466.386
317.147
318.347
317.147
308.251
481.035
466.386
481.035
318.347
317.147
317.147
317.147
466.386
318.347
466.386
318.347
317.147
318.347
481.035
317.147
466.386
318.347
318.347
317.147
481.035
317.147
317.147
317.147
317.147
318.347
1000.34
318.347
317.147
466.386
481.035
481.035
891.584
466.386
466.386
889.073
466.386
317.147
317.147
481.035
318.347
466.386
466.386
466.386
317.147
481.035
481.035
318.347
317.147
318.347
318.347
318.347
466.386
318.347
318.347
317.147
318.347
466.386
325.718
965.187
481.035
481.035
317.147
481.035
466.386
466.386
466.386
466.386
466.386
990.883
466.386
318.347
318.347
317.147
466.386
317.147
466.386
317.147
318.347
466.386
303.939
317.147
318.347
318.347
317.147
928.906
317.147
310.262
466.386
318.347
466.386
318.347
466.386
317.147
317.147
466.386
466.386
481.035
466.386
481.035
466.386
317.147
317.147
317.147
481.035
318.347
466.386
317.147
481.035
318.347
466.386
466.386
481.035
466.386
317.147
317.147
481.035
317.147
318.347
481.035
466.386
317.147
318.347
466.386
318.347
318.347
317.147
317.147
317.147
481.035
466.386
481.035
481.035
318.347
317.147
318.347
307.611
317.147
466.386
1023.57
481.035
317.147
309.584
317.147
317.147
466.386
317.147
318.347
318.347
318.347
317.147
318.347
466.386
466.386
466.386
318.347
466.386
466.386
317.147
306.547
317.147
303.062
466.386
318.347
466.386
318.347
318.347
466.386
317.147
481.035
481.035
481.035
317.147
481.035
481.035
466.386
481.035
481.035
466.386
481.035
481.035
953.431
317.147
466.386
466.386
318.347
318.347
317.147
317.147
318.347
466.386
466.386
318.347
481.035
481.035
318.347
466.386
481.035
318.347
318.347
317.147
466.386
466.386
317.147
466.386
466.386
317.147
481.035
306.884
317.147
317.147
317.147
466.386
466.386
466.386
317.147
466.386
466.386
466.386
466.386
481.035
466.386
318.347
481.035
466.386
466.386
318.347
466.386
317.147
466.386
943.563
318.347
466.386
481.035
317.147
317.147
481.035
481.035
1007.52
317.147
918.807
466.386
886.1
481.035
466.386
481.035
481.035
318.347
317.147
481.035
466.386
317.147
318.347
317.147
481.035
317.147
317.147
318.347
318.347
466.386
481.035
466.386
466.386
318.347
466.386
318.347
466.386
481.035
481.035
317.147
303.894
481.035
466.386
317.147
943.563
318.347
317.147
318.347
317.147
317.147
318.347
466.386
481.035
481.035
466.386
317.147
317.147
481.035
317.147
920.782
466.386
466.386
481.035
466.386
318.347
317.147
466.386
481.035
318.347
318.347
466.386
317.147
466.386
317.147
317.147
317.147
466.386
318.347
317.147
317.147
318.347
481.035
303.568
481.035
481.035
317.147
317.147
481.035
466.386
318.347
317.147
317.147
481.035
481.035
466.386
318.347
318.347
481.035
318.347
317.147
987.116
317.147
318.347
466.386
481.035
481.035
466.386
466.386
466.386
466.386
466.386
318.347
481.035
307.067
481.035
481.035
318.347
466.386
466.386
466.386
481.035
317.147
466.386
481.035
318.347
466.386
481.035
466.386
318.347
317.147
318.347
317.147
481.035
481.035
466.386
481.035
466.386
466.386
481.035
466.386
466.386
317.147
318.347
318.347
336.261
317.149
481.035
481.035
318.347
318.347
481.035
481.035
466.386
317.147
466.386
466.386
466.386
317.147
466.386
317.147
318.347
312.793
317.147
466.386
318.347
466.386
466.386
481.035
318.347
466.386
318.347
308.35
318.347
317.147
466.386
481.035
317.147
317.147
307.611
318.347
318.347
317.147
481.035
317.147
317.147
466.386
1026.18
466.386
317.147
317.147
317.147
466.386
466.386
466.386
318.347
466.386
318.347
875.293
350.564
317.147
317.147
317.147
466.386
318.347
481.035
348.573
317.147
318.347
466.386
481.035
481.035
466.386
481.035
481.035
318.347
466.386
481.035
317.147
317.147
318.347
466.386
466.386
481.035
481.035
318.347
466.386
481.035
481.035
318.347
466.386
1023.57
317.147
466.386
318.347
481.035
317.147
466.386
481.035
318.347
466.386
317.147
481.035
466.386
317.147
318.347
481.035
466.386
466.386
317.147
466.386
481.035
317.147
481.035
318.347
318.347
1071.74
318.347
317.147
317.147
317.147
326.992
481.035
317.147
318.347
956.942
318.347
466.386
481.035
481.035
466.386
481.035
317.147
481.035
318.347
318.347
318.347
317.147
318.347
317.147
317.147
318.347
481.035
318.347
318.347
481.035
317.147
317.147
318.347
306.547
481.035
317.147
317.147
481.035
318.347
481.035
481.035
317.147
466.386
466.386
317.147
466.386
318.347
323.244
318.347
317.147
317.147
317.147
317.147
317.147
310.462
466.386
481.035
1053.97
318.347
317.147
466.386
317.147
317.147
481.035
317.147
318.347
317.147
317.147
317.147
466.386
318.347
317.147
466.386
317.147
481.035
318.347
317.147
318.347
466.386
481.035
318.347
466.386
466.386
317.147
317.147
317.147
466.386
318.347
303.545
466.386
466.386
317.147
317.147
318.347
481.035
481.035
481.035
317.147
318.347
317.147
481.035
466.386
317.147
317.147
318.347
318.347
317.147
466.386
318.347
481.035
318.347
466.386
466.386
318.347
318.347
466.386
873.604
318.347
481.035
466.386
926.054
949.041
466.386
466.386
481.035
317.147
317.147
481.035
318.347
481.035
318.347
317.147
481.035
317.147
317.147
466.386
317.147
844.388
872.601
466.386
466.386
318.347
318.347
317.147
481.035
317.147
481.035
317.147
317.147
466.386
481.035
466.386
317.147
319.546
318.347
317.147
481.035
317.147
466.386
317.147
466.386
317.147
466.386
466.386
318.347
317.147
481.035
317.147
466.386
318.347
466.386
481.035
481.035
481.035
317.147
466.386
481.035
925.627
481.035
481.035
317.147
466.386
317.147
317.147
318.347
317.147
318.347
317.147
466.386
481.035
911.109
318.347
318.347
466.386
317.147
317.147
317.147
317.147
466.386
466.386
318.347
318.347
317.147
317.147
969.262
303.761
481.035
466.386
466.386
317.147
466.386
305.781
481.035
317.147
466.386
481.035
318.347
466.386
318.347
317.147
318.347
1026.18
481.035
318.347
317.147
317.147
317.147
318.347
481.035
318.347
317.147
466.386
317.147
318.347
317.147
481.035
318.347
318.347
481.035
466.386
925.627
317.147
317.147
466.386
466.386
1077.22
481.035
317.147
317.147
466.386
481.035
317.147
481.035
466.386
466.386
317.147
318.347
481.035
983.426
481.035
317.147
481.035
481.035
318.347
318.347
318.347
318.347
466.386
481.035
481.035
481.035
318.347
317.147
318.347
317.147
466.386
466.386
466.386
466.386
481.035
466.386
466.386
325.718
318.347
317.147
317.147
481.035
481.035
466.386
466.386
466.386
317.147
886.1
318.347
318.347
317.147
481.035
481.035
317.147
318.347
317.147
481.035
318.347
466.386
466.386
317.147
317.147
317.147
317.147
318.347
318.347
318.347
318.347
317.147
317.147
466.386
317.147
466.386
318.347
466.386
466.386
466.386
317.147
317.147
1035.45
318.347
466.386
481.035
466.386
481.035
317.147
466.386
942.818
317.147
305.8
481.035
466.386
466.386
934.388
317.147
317.147
317.147
481.035
305.346
317.147
317.147
1030.87
481.035
317.147
318.347
318.347
318.347
317.147
318.347
481.035
317.147
303.062
318.347
466.386
466.386
466.386
466.386
466.386
317.147
481.035
1019.77
466.386
466.386
466.386
318.347
317.147
317.147
466.386
317.147
317.147
317.147
317.147
318.347
466.386
466.386
481.035
317.147
466.386
317.147
481.035
317.147
917.799
993.533
466.386
318.347
481.035
481.035
318.347
481.035
333.538
466.386
317.147
318.347
318.347
1031.67
318.347
466.386
481.035
317.147
466.386
317.147
317.147
318.347
318.347
318.347
466.386
318.347
993.887
481.035
312.164
481.035
481.035
969.262
317.147
466.386
466.386
466.386
317.147
481.035
466.386
318.347
317.147
317.147
481.035
466.386
303.77
466.386
466.386
318.347
481.035
466.386
481.035
466.386
481.035
466.386
466.386
328.364
318.347
466.386
481.035
317.147
317.147
481.035
466.386
318.347
317.147
318.347
466.386
466.386
317.147
481.035
466.386
481.035
317.149
317.147
317.147
318.347
318.347
318.347
318.347
317.147
466.386
481.035
926.054
925.211
481.035
466.386
318.347
466.386
318.347
317.147
466.386
317.147
318.347
481.035
481.035
319.546
466.386
466.386
318.347
466.386
466.386
466.386
466.386
481.035
466.386
481.035
466.386
466.386
318.347
481.035
481.035
466.386
481.035
318.347
343.64
318.347
318.347
466.386
481.035
317.147
466.386
466.386
481.035
317.147
317.147
466.386
481.035
318.347
317.147
481.035
466.386
481.035
481.035
466.386
317.147
466.386
481.035
318.347
318.347
466.386
481.035
317.147
317.147
466.386
481.035
466.386
466.386
1030.87
317.147
318.347
318.347
318.347
318.347
466.386
317.147
317.147
318.347
466.386
481.035
466.386
481.035
318.347