<?xml version="1.0"?>
<VTKFile type="ImageData" version="0.1" byte_order="LittleEndian">
  <ImageData Origin="0 0 0" Spacing="1e-05 1e-05 1e-05" WholeExtent="0 191 0 191 0 0">
    <Piece Extent="0 191 0 191 0 0">
      <CellData Scalars="T">
        <DataArray type="Float32" Name="T" format="ascii" NumberOfComponents="1">
507.375
15000
15000
15000
15000
15000
15000
15000
15000
15000
14999.9
14999.9
14999.9
14999.8
14999.7
14999.6
14999.4
14999.2
14998.9
14998.6
14998.1
14997.5
14996.6
14995.6
14994.3
14992.6
14990.4
14987.7
14984.4
14980.2
14975.1
14968.8
14961.1
14951.8
14940.6
14927.1
14911.1
14892
14869.6
14843.2
14812.3
14776.4
14734.9
14687.2
14632.6
14570.3
14499.7
14420
14330.7
14230.8
14119.8
13997
13861.7
13713.6
13552
13376.6
13187.2
12983.6
12765.6
12533.5
12287.5
12027.9
11755.3
11470.3
11173.8
10866.7
10550.1
10225.3
9893.53
9556.24
9214.93
8871.16
8526.52
8182.64
7841.12
7503.55
7171.47
6846.37
6529.65
6222.62
5926.47
5642.27
5370.96
5113.36
4870.11
4641.75
4428.65
4231.05
4049.05
3882.63
3731.66
3595.89
3474.98
3368.51
3275.99
3196.86
3130.52
3076.34
3033.66
3001.81
2980.1
2967.88
2964.46
2969.2
2981.48
3000.69
3026.26
3057.63
3094.29
3135.74
3181.52
3231.19
3284.33
3340.56
3399.48
3460.75
3524.02
3588.96
3655.24
3722.54
3790.57
3859
3927.55
3995.92
4063.82
4130.95
4197.05
4261.83
4325.04
4386.41
4445.7
4502.67
4557.12
4608.84
4657.64
4703.37
4745.88
4785.04
4820.77
4852.96
4881.58
4906.57
4927.91
4945.62
4959.7
4970.18
4977.11
4980.55
4980.57
4977.23
4970.63
4960.85
4948
4932.16
4913.45
4891.98
4867.87
4841.23
4812.19
4780.89
4747.47
4712.08
4674.9
4636.1
4595.86
4554.39
4511.9
4468.63
4424.79
4380.65
4336.46
4292.48
4248.97
4206.19
4164.4
4123.84
4084.73
4047.26
4011.53
3977.56
3945.18
3913.86
3882.44
3848.62
3807.83
3751.31
3662.15
3507.56
3223.31
2680.97
1612.87
319.173
1087.77
15000
15000
15000
15000
15000
15000
15000
15000
15000
14999.9
14999.9
14999.9
14999.8
14999.7
14999.6
14999.4
14999.2
14998.9
14998.6
14998.1
14997.5
14996.6
14995.6
14994.3
14992.6
14990.4
14987.7
14984.4
14980.2
14975.1
14968.8
14961.1
14951.8
14940.6
14927.2
14911.1
14892.1
14869.6
14843.2
14812.4
14776.5
14735
14687.3
14632.7
14570.4
14499.8
14420.2
14330.8
14231
14120
13997.2
13862
13713.9
13552.3
13377
13187.6
12984
12766.1
12534
12288
12028.5
11755.9
11470.9
11174.4
10867.3
10550.7
10225.9
9894.1
9556.78
9215.44
8871.63
8526.94
8183
7841.41
7503.75
7171.59
6846.39
6529.56
6222.41
5926.13
5641.79
5370.35
5112.6
4869.2
4640.68
4427.42
4229.65
4047.49
3880.9
3729.76
3593.82
3472.75
3366.11
3273.43
3194.14
3127.64
3073.31
3030.48
2998.49
2976.64
2964.28
2960.73
2965.34
2977.5
2996.59
3022.05
3053.31
3089.87
3131.23
3176.92
3226.5
3279.57
3335.72
3394.58
3455.79
3519.01
3583.9
3650.14
3717.42
3785.42
3853.84
3922.39
3990.76
4058.67
4125.83
4191.95
4256.78
4320.03
4381.45
4440.8
4497.85
4552.37
4604.17
4653.06
4698.88
4741.48
4780.74
4816.55
4848.84
4877.55
4902.63
4924.07
4941.87
4956.03
4966.59
4973.59
4977.1
4977.18
4973.89
4967.34
4957.61
4944.79
4928.99
4910.31
4888.86
4864.76
4838.13
4809.1
4777.81
4744.4
4709.02
4671.84
4633.04
4592.81
4551.34
4508.86
4465.59
4421.77
4377.64
4333.46
4289.5
4246.01
4203.25
4161.48
4120.94
4081.86
4044.41
4008.71
3974.77
3942.41
3911.12
3879.75
3846
3805.37
3749.23
3661.07
3509.47
3235.01
2727.99
1801.87
354.576
1081.93
15000
15000
15000
15000
15000
15000
15000
15000
15000
14999.9
14999.9
14999.9
14999.8
14999.7
14999.6
14999.4
14999.2
14998.9
14998.6
14998.1
14997.5
14996.6
14995.6
14994.3
14992.6
14990.4
14987.7
14984.4
14980.2
14975.1
14968.8
14961.1
14951.8
14940.6
14927.2
14911.2
14892.2
14869.7
14843.3
14812.5
14776.6
14735.2
14687.5
14632.9
14570.7
14500.1
14420.6
14331.2
14231.4
14120.5
13997.8
13862.6
13714.5
13553
13377.8
13188.4
12984.9
12767
12535
12289.1
12029.6
11757
11472.1
11175.6
10868.5
10551.9
10227.1
9895.23
9557.87
9216.46
8872.57
8527.78
8183.71
7841.98
7504.17
7171.82
6846.42
6529.38
6221.99
5925.46
5640.86
5369.14
5111.09
4867.39
4638.56
4424.98
4226.89
4044.39
3877.47
3726
3589.72
3468.32
3361.35
3268.34
3188.74
3121.93
3067.29
3024.17
2991.88
2969.75
2957.12
2953.3
2957.67
2969.58
2988.44
3013.67
3044.72
3081.08
3122.24
3167.75
3217.17
3270.08
3326.08
3384.81
3445.9
3509.01
3573.81
3639.98
3707.2
3775.15
3843.55
3912.09
3980.47
4048.4
4115.6
4181.79
4246.69
4310.03
4371.56
4431.04
4488.22
4542.89
4594.85
4643.91
4689.9
4732.69
4772.13
4808.14
4840.62
4869.51
4894.78
4916.4
4934.37
4948.69
4959.41
4966.56
4970.2
4970.4
4967.23
4960.78
4951.13
4938.39
4922.65
4904.02
4882.62
4858.55
4831.95
4802.94
4771.67
4738.27
4702.9
4665.73
4626.94
4586.71
4545.26
4502.8
4459.54
4415.74
4371.64
4327.49
4283.55
4240.1
4197.38
4155.66
4115.17
4076.13
4038.72
4003.07
3969.18
3936.88
3905.66
3874.37
3840.75
3800.37
3744.76
3657.89
3509.48
3242.89
2753.29
1848.65
354.91
1066.54
15000
15000
15000
15000
15000
15000
15000
15000
15000
14999.9
14999.9
14999.9
14999.8
14999.7
14999.6
14999.4
14999.2
14998.9
14998.6
14998.1
14997.5
14996.7
14995.6
14994.3
14992.6
14990.4
14987.7
14984.4
14980.2
14975.1
14968.8
14961.2
14951.9
14940.7
14927.3
14911.3
14892.3
14869.8
14843.5
14812.7
14776.9
14735.4
14687.8
14633.2
14571
14500.6
14421
14331.8
14232.1
14121.2
13998.5
13863.5
13715.5
13554.1
13378.9
13189.7
12986.2
12768.4
12536.5
12290.6
12031.2
11758.7
11473.8
11177.3
10870.3
10553.7
10228.8
9896.93
9559.49
9217.99
8873.97
8529.03
8184.79
7842.85
7504.8
7172.19
6846.49
6529.13
6221.4
5924.49
5639.5
5367.36
5108.88
4864.73
4635.43
4421.37
4222.79
4039.8
3872.39
3720.42
3583.65
3461.74
3354.29
3260.8
3180.71
3113.44
3058.35
3014.78
2982.05
2959.51
2946.47
2942.26
2946.25
2957.79
2976.31
3001.2
3031.93
3067.98
3108.86
3154.1
3203.26
3255.93
3311.72
3370.24
3431.16
3494.11
3558.77
3624.82
3691.95
3759.84
3828.19
3896.71
3965.1
4033.07
4100.33
4166.6
4231.61
4295.09
4356.78
4416.44
4473.82
4528.72
4580.91
4630.22
4676.48
4719.53
4759.26
4795.55
4828.31
4857.49
4883.03
4904.92
4923.14
4937.71
4948.66
4956.03
4959.88
4960.26
4957.26
4950.95
4941.43
4928.8
4913.16
4894.61
4873.28
4849.27
4822.71
4793.73
4762.48
4729.1
4693.75
4656.59
4617.82
4577.61
4536.17
4493.73
4450.5
4406.73
4362.66
4318.56
4274.67
4231.27
4188.61
4146.95
4106.53
4067.57
4030.23
3994.66
3960.84
3928.62
3897.48
3866.31
3832.85
3792.75
3737.68
3651.93
3505.81
3243.67
2761.13
1862.56
354.005
1048.23
15000
15000
15000
15000
15000
15000
15000
15000
15000
14999.9
14999.9
14999.9
14999.8
14999.7
14999.6
14999.4
14999.2
14998.9
14998.6
14998.1
14997.5
14996.7
14995.6
14994.3
14992.6
14990.4
14987.8
14984.4
14980.3
14975.1
14968.9
14961.2
14952
14940.8
14927.4
14911.4
14892.4
14870
14843.7
14812.9
14777.1
14735.8
14688.2
14633.7
14571.5
14501.1
14421.7
14332.5
14232.9
14122.1
13999.6
13864.6
13716.7
13555.5
13380.4
13191.3
12987.9
12770.3
12538.5
12292.7
12033.3
11760.9
11476.1
11179.6
10872.6
10556
10231.1
9899.17
9561.64
9220.01
8875.83
8530.7
8186.22
7844.01
7505.65
7172.69
6846.62
6528.83
6220.64
5923.25
5637.74
5365.05
5106
4861.26
4631.35
4416.66
4217.44
4033.8
3865.73
3713.1
3575.68
3453.12
3345.02
3250.89
3170.17
3102.28
3046.58
3002.42
2969.12
2946.02
2932.44
2927.71
2931.19
2942.25
2960.3
2984.75
3015.06
3050.7
3091.19
3136.07
3184.89
3237.24
3292.73
3350.99
3411.66
3474.4
3538.87
3604.77
3671.77
3739.56
3807.86
3876.35
3944.75
4012.76
4080.09
4146.48
4211.63
4275.29
4337.19
4397.08
4454.73
4509.91
4562.41
4612.05
4658.66
4702.07
4742.16
4778.82
4811.95
4841.5
4867.41
4889.65
4908.21
4923.12
4934.38
4942.04
4946.15
4946.77
4943.99
4937.89
4928.55
4916.07
4900.56
4882.12
4860.87
4836.93
4810.43
4781.5
4750.29
4716.94
4681.61
4644.47
4605.72
4565.53
4524.12
4481.7
4438.51
4394.78
4350.77
4306.72
4262.9
4219.57
4176.99
4135.42
4095.09
4056.21
4018.98
3983.5
3949.79
3917.67
3886.64
3855.59
3822.31
3782.48
3727.89
3642.99
3498.38
3238.5
2758.05
1854.6
351.957
1035.53
15000
15000
15000
15000
15000
15000
15000
15000
15000
14999.9
14999.9
14999.9
14999.8
14999.7
14999.6
14999.4
14999.2
14999
14998.6
14998.1
14997.5
14996.7
14995.6
14994.3
14992.6
14990.5
14987.8
14984.4
14980.3
14975.2
14968.9
14961.3
14952
14940.9
14927.5
14911.5
14892.6
14870.2
14843.9
14813.2
14777.5
14736.2
14688.6
14634.2
14572.2
14501.8
14422.5
14333.4
14233.9
14123.2
14000.8
13866
13718.3
13557.1
13382.2
13193.2
12990
12772.5
12540.8
12295.2
12035.9
11763.6
11478.9
11182.5
10875.5
10558.9
10233.9
9901.93
9564.3
9222.52
8878.15
8532.78
8188.02
7845.48
7506.74
7173.36
6846.81
6528.51
6219.77
5921.78
5635.63
5362.27
5102.52
4857.05
4626.39
4410.93
4210.92
4026.48
3857.61
3704.17
3565.93
3442.56
3333.66
3238.73
3157.24
3088.58
3032.13
2987.24
2953.23
2929.43
2915.17
2909.79
2912.65
2923.11
2940.57
2964.46
2994.23
3029.37
3069.38
3113.8
3162.19
3214.14
3269.27
3327.19
3387.55
3450.01
3514.25
3579.95
3646.79
3714.46
3782.67
3851.12
3919.52
3987.58
4055
4121.52
4186.84
4250.71
4312.86
4373.04
4431.01
4486.54
4539.43
4589.47
4636.5
4680.35
4720.89
4758
4791.6
4821.6
4847.96
4870.64
4889.63
4904.94
4916.58
4924.6
4929.05
4929.98
4927.48
4921.62
4912.5
4900.22
4884.87
4866.57
4845.44
4821.59
4795.17
4766.3
4735.14
4701.82
4666.53
4629.42
4590.69
4550.53
4509.16
4466.78
4423.63
4379.96
4336.01
4292.03
4248.29
4205.05
4162.57
4121.1
4080.88
4042.13
4005.01
3969.65
3936.06
3904.06
3873.16
3842.27
3809.17
3769.6
3715.41
3631.17
3487.56
3228.98
2749.49
1847.26
350.995
1037.4
15000
15000
15000
15000
15000
15000
15000
15000
15000
14999.9
14999.9
14999.9
14999.8
14999.7
14999.6
14999.4
14999.2
14999
14998.6
14998.1
14997.5
14996.7
14995.6
14994.3
14992.6
14990.5
14987.8
14984.5
14980.3
14975.2
14969
14961.4
14952.1
14941
14927.6
14911.7
14892.8
14870.4
14844.2
14813.5
14777.9
14736.6
14689.1
14634.8
14572.9
14502.6
14423.4
14334.5
14235.1
14124.6
14002.3
13867.6
13720.1
13559.1
13384.3
13195.5
12992.5
12775.2
12543.6
12298.1
12039
11766.8
11482.1
11185.8
10878.9
10562.3
10237.3
9905.21
9567.45
9225.5
8880.91
8535.27
8190.18
7847.25
7508.08
7174.2
6847.11
6528.21
6218.81
5920.13
5633.24
5359.09
5098.52
4852.19
4620.65
4404.28
4203.34
4017.96
3848.13
3693.73
3554.53
3430.21
3320.36
3224.49
3142.07
3072.5
3015.16
2969.39
2934.53
2909.91
2894.85
2888.69
2890.79
2900.53
2917.29
2940.52
2969.65
3004.18
3043.61
3087.48
3135.35
3186.82
3241.5
3299.01
3359
3421.13
3485.08
3550.53
3617.16
3684.68
3752.79
3821.18
3889.57
3957.67
4025.19
4091.85
4157.37
4221.48
4283.92
4344.43
4402.77
4458.71
4512.04
4562.56
4610.08
4654.45
4695.52
4733.17
4767.31
4797.85
4824.74
4847.94
4867.44
4883.23
4895.33
4903.78
4908.62
4909.93
4907.76
4902.2
4893.35
4881.29
4866.14
4848.02
4827.03
4803.3
4776.98
4748.18
4717.08
4683.82
4648.56
4611.5
4572.8
4532.68
4491.35
4449.02
4405.93
4362.32
4318.45
4274.56
4230.92
4187.79
4145.43
4104.08
4063.99
4025.37
3988.4
3953.18
3919.73
3887.87
3857.12
3826.38
3793.47
3754.15
3700.33
3616.65
3473.94
3216.92
2740.88
1847.48
349.814
1045.64
15000
15000
15000
15000
15000
15000
15000
15000
15000
14999.9
14999.9
14999.9
14999.8
14999.7
14999.6
14999.4
14999.2
14999
14998.6
14998.1
14997.5
14996.7
14995.6
14994.3
14992.6
14990.5
14987.8
14984.5
14980.4
14975.3
14969.1
14961.5
14952.2
14941.1
14927.8
14911.9
14893
14870.7
14844.5
14813.9
14778.3
14737.1
14689.7
14635.5
14573.7
14503.6
14424.5
14335.6
14236.4
14126.1
14004
13869.5
13722.1
13561.3
13386.8
13198.1
12995.3
12778.2
12546.8
12301.5
12042.5
11770.4
11485.9
11189.7
10882.7
10566.2
10241.1
9908.97
9571.08
9228.94
8884.1
8538.16
8192.7
7849.35
7509.68
7175.25
6847.54
6527.96
6217.83
5918.36
5630.62
5355.59
5094.08
4846.77
4614.22
4396.82
4194.82
4008.36
3837.44
3681.94
3541.64
3416.23
3305.28
3208.33
3124.84
3054.22
2995.85
2949.08
2913.23
2887.65
2871.66
2864.6
2865.83
2874.73
2890.68
2913.13
2941.51
2975.33
3014.08
3057.31
3104.58
3155.48
3209.63
3266.66
3326.21
3387.94
3451.55
3516.7
3583.09
3650.42
3718.39
3786.7
3855.07
3923.21
3990.82
4057.63
4123.36
4187.74
4250.5
4311.38
4370.14
4426.54
4480.37
4531.42
4579.51
4624.46
4666.14
4704.4
4739.16
4770.32
4797.82
4821.62
4841.69
4858.04
4870.67
4879.62
4884.93
4886.66
4884.88
4879.68
4871.13
4859.35
4844.44
4826.52
4805.7
4782.12
4755.91
4727.21
4696.19
4662.99
4627.79
4590.77
4552.13
4512.06
4470.78
4428.51
4385.49
4341.96
4298.18
4254.39
4210.87
4167.86
4125.64
4084.44
4044.5
4006.03
3969.22
3934.16
3900.87
3869.17
3838.58
3808.02
3775.3
3736.23
3682.75
3599.59
3457.71
3202.03
2727.86
1835.44
348.483
1035.15
15000
15000
15000
15000
15000
15000
15000
15000
15000
14999.9
14999.9
14999.9
14999.8
14999.7
14999.6
14999.4
14999.2
14999
14998.6
14998.1
14997.5
14996.7
14995.6
14994.3
14992.6
14990.5
14987.9
14984.5
14980.4
14975.3
14969.1
14961.5
14952.3
14941.3
14927.9
14912.1
14893.2
14871
14844.8
14814.3
14778.8
14737.7
14690.4
14636.3
14574.5
14504.6
14425.6
14336.9
14237.9
14127.7
14005.8
13871.5
13724.3
13563.8
13389.4
13201
12998.4
12781.5
12550.4
12305.2
12046.4
11774.5
11490.1
11193.9
10887.1
10570.5
10245.4
9913.19
9575.16
9232.82
8887.72
8541.44
8195.59
7851.77
7511.56
7176.53
6848.14
6527.82
6216.87
5916.52
5627.85
5351.83
5089.29
4840.9
4607.23
4388.67
4185.49
3997.83
3825.69
3668.97
3527.44
3400.79
3288.62
3190.45
3105.76
3033.96
2974.42
2926.51
2889.56
2862.89
2845.84
2837.76
2838
2845.94
2860.97
2882.53
2910.06
2943.06
2981.04
3023.53
3070.11
3120.36
3173.9
3230.36
3289.4
3350.68
3413.88
3478.68
3544.78
3611.87
3679.67
3747.88
3816.21
3884.37
3952.08
4019.04
4084.99
4149.65
4212.75
4274.04
4333.25
4390.16
4444.54
4496.18
4544.89
4590.49
4632.84
4671.79
4707.24
4739.09
4767.28
4791.75
4812.47
4829.45
4842.68
4852.19
4858.03
4860.25
4858.91
4854.11
4845.93
4834.47
4819.83
4802.15
4781.53
4758.12
4732.05
4703.47
4672.54
4639.43
4604.3
4567.34
4528.76
4488.75
4447.54
4405.34
4362.4
4318.97
4275.29
4231.62
4188.23
4145.36
4103.29
4062.26
4022.49
3984.2
3947.56
3912.68
3879.56
3848.05
3817.64
3787.25
3754.74
3715.91
3662.78
3580.14
3439.13
3185.07
2714.44
1831.47
346.902
1030.75
15000
15000
15000
15000
15000
15000
15000
15000
15000
14999.9
14999.9
14999.9
14999.8
14999.7
14999.6
14999.4
14999.2
14999
14998.6
14998.1
14997.5
14996.7
14995.7
14994.3
14992.7
14990.5
14987.9
14984.6
14980.5
14975.4
14969.2
14961.6
14952.5
14941.4
14928.1
14912.3
14893.5
14871.3
14845.2
14814.7
14779.3
14738.3
14691.1
14637.1
14575.5
14505.7
14426.9
14338.4
14239.5
14129.5
14007.8
13873.7
13726.8
13566.4
13392.4
13204.2
13001.8
12785.1
12554.2
12309.3
12050.7
11778.9
11494.6
11198.6
10891.8
10575.3
10250.2
9917.86
9579.68
9237.13
8891.76
8545.13
8198.85
7854.53
7513.75
7178.06
6848.94
6527.81
6215.99
5914.7
5625.02
5347.92
5084.25
4834.69
4599.79
4379.98
4175.51
3986.53
3813.05
3654.98
3512.1
3384.09
3270.57
3171.06
3085.04
3011.93
2951.11
2901.93
2863.74
2835.87
2817.65
2808.43
2807.56
2814.42
2828.42
2848.98
2875.56
2907.64
2944.75
2986.41
3032.2
3081.71
3134.56
3190.39
3248.85
3309.6
3372.32
3436.72
3502.47
3569.29
3636.88
3704.95
3773.21
3841.38
3909.16
3976.28
4042.46
4107.41
4170.87
4232.58
4292.28
4349.73
4404.7
4456.98
4506.36
4552.67
4595.75
4635.45
4671.66
4704.27
4733.21
4758.42
4779.87
4797.54
4811.43
4821.57
4828
4830.76
4829.93
4825.58
4817.81
4806.71
4792.39
4774.98
4754.6
4731.38
4705.48
4677.05
4646.23
4613.22
4578.18
4541.3
4502.79
4462.86
4421.72
4379.62
4336.77
4293.45
4249.89
4206.35
4163.11
4120.4
4078.5
4037.65
3998.07
3959.97
3923.52
3888.84
3855.92
3824.59
3794.37
3764.18
3731.87
3693.3
3640.51
3558.38
3418.17
3165.33
2696.13
1812.77
344.24
1043.81
15000
15000
15000
15000
15000
15000
15000
15000
15000
14999.9
14999.9
14999.9
14999.8
14999.7
14999.6
14999.4
14999.2
14999
14998.6
14998.1
14997.5
14996.7
14995.7
14994.4
14992.7
14990.6
14987.9
14984.6
14980.5
14975.5
14969.3
14961.7
14952.6
14941.6
14928.3
14912.5
14893.8
14871.6
14845.6
14815.2
14779.9
14739
14691.9
14638
14576.5
14506.8
14428.2
14339.9
14241.2
14131.4
14009.9
13876.1
13729.4
13569.3
13395.5
13207.6
13005.5
12789
12558.4
12313.7
12055.3
11783.7
11499.6
11203.7
10897
10580.5
10255.3
9922.94
9584.62
9241.86
8896.19
8549.2
8202.48
7857.64
7516.25
7179.87
6849.98
6528
6215.25
5912.95
5622.19
5343.95
5079.07
4828.25
4592.04
4370.87
4165.01
3974.62
3799.7
3640.17
3495.82
3366.34
3251.35
3150.39
3062.92
2988.38
2926.15
2875.59
2836.05
2806.85
2787.34
2776.86
2774.77
2780.46
2793.31
2812.77
2838.29
2869.36
2905.49
2946.23
2991.14
3039.83
3091.91
3147.02
3204.81
3264.97
3327.16
3391.08
3456.44
3522.93
3590.27
3658.16
3726.33
3794.47
3862.32
3929.57
3995.97
4061.21
4125.04
4187.19
4247.4
4305.42
4361.02
4413.97
4464.08
4511.15
4555.01
4595.51
4632.54
4665.97
4695.72
4721.74
4743.97
4762.4
4777.03
4787.86
4794.93
4798.3
4798.02
4794.17
4786.85
4776.16
4762.2
4745.1
4724.99
4702.01
4676.3
4648.03
4617.36
4584.47
4549.53
4512.76
4474.34
4434.5
4393.46
4351.45
4308.72
4265.52
4222.09
4178.71
4135.62
4093.1
4051.38
4010.72
3971.34
3933.45
3897.22
3862.74
3830.03
3798.9
3768.88
3738.89
3706.81
3668.49
3616.04
3534.39
3394.86
3142.63
2672.1
1776.97
342.652
1053.09
15000
15000
15000
15000
15000
15000
15000
15000
15000
14999.9
14999.9
14999.9
14999.8
14999.7
14999.6
14999.4
14999.2
14999
14998.6
14998.1
14997.5
14996.7
14995.7
14994.4
14992.7
14990.6
14988
14984.7
14980.6
14975.5
14969.4
14961.9
14952.7
14941.7
14928.5
14912.8
14894.1
14872
14846
14815.7
14780.4
14739.6
14692.7
14638.9
14577.6
14508.1
14429.6
14341.5
14243
14133.4
14012.2
13878.6
13732.1
13572.3
13398.8
13211.2
13009.3
12793.2
12562.8
12318.3
12060.2
11788.8
11504.9
11209.1
10902.5
10586
10260.9
9928.41
9589.95
9246.98
8901.02
8553.66
8206.49
7861.1
7519.09
7181.99
6851.3
6528.43
6214.7
5911.34
5619.45
5340.01
5073.86
4821.7
4584.11
4361.5
4154.17
3962.26
3785.81
3624.72
3478.8
3347.76
3231.19
3128.66
3039.64
2963.56
2899.81
2847.76
2806.75
2776.12
2755.21
2743.36
2739.94
2744.34
2755.95
2774.2
2798.56
2828.51
2863.57
2903.29
2947.24
2995.01
3046.24
3100.55
3157.61
3217.09
3278.68
3342.07
3406.97
3473.08
3540.11
3607.79
3675.82
3743.91
3811.79
3879.17
3945.76
4011.3
4075.5
4138.09
4198.82
4257.43
4313.68
4367.34
4418.2
4466.07
4510.76
4552.12
4590.01
4624.32
4654.95
4681.82
4704.9
4724.15
4739.56
4751.14
4758.92
4762.94
4763.27
4759.99
4753.17
4742.93
4729.37
4712.62
4692.81
4670.1
4644.62
4616.54
4586.04
4553.29
4518.48
4481.82
4443.51
4403.78
4362.85
4320.97
4278.36
4235.3
4192.02
4148.8
4105.9
4063.56
4022.05
3981.6
3942.44
3904.77
3868.76
3834.51
3802.01
3771.1
3741.28
3711.51
3679.65
3641.6
3589.49
3508.35
3369.64
3118.93
2652.33
1771.87
342.388
1059.49
15000
15000
15000
15000
15000
15000
15000
15000
15000
14999.9
14999.9
14999.9
14999.8
14999.7
14999.6
14999.4
14999.2
14999
14998.6
14998.1
14997.5
14996.7
14995.7
14994.4
14992.7
14990.6
14988
14984.7
14980.6
14975.6
14969.5
14962
14952.9
14941.9
14928.7
14913
14894.4
14872.3
14846.5
14816.2
14781.1
14740.4
14693.5
14639.9
14578.7
14509.3
14431.1
14343.1
14244.9
14135.5
14014.5
13881.2
13735
13575.5
13402.2
13214.9
13013.4
12797.5
12567.4
12323.2
12065.3
11794.2
11510.4
11214.8
10908.3
10591.9
10266.8
9934.25
9595.66
9252.48
8906.24
8558.5
8210.87
7864.94
7522.28
7184.45
6852.93
6529.14
6214.41
5909.95
5616.89
5336.19
5068.72
4815.17
4576.12
4352.01
4143.13
3949.63
3771.56
3608.84
3461.26
3328.55
3210.32
3106.12
3015.45
2937.73
2872.36
2818.71
2776.12
2743.95
2721.54
2708.22
2703.37
2706.37
2716.63
2733.58
2756.68
2785.42
2819.32
2857.92
2900.81
2947.59
2997.87
3051.3
3107.54
3166.28
3227.19
3289.98
3354.36
3420.03
3486.71
3554.12
3621.97
3689.97
3757.85
3825.32
3892.1
3957.91
4022.47
4085.51
4146.77
4205.97
4262.89
4317.28
4368.92
4417.62
4463.17
4505.43
4544.23
4579.46
4611.02
4638.81
4662.79
4682.91
4699.16
4711.54
4720.08
4724.82
4725.81
4723.12
4716.86
4707.11
4694
4677.64
4658.18
4635.76
4610.54
4582.68
4552.38
4519.8
4485.14
4448.62
4410.45
4370.84
4330.04
4288.29
4245.83
4202.92
4159.82
4116.78
4074.06
4031.93
3990.64
3950.41
3911.49
3874.05
3838.28
3804.26
3771.99
3741.3
3711.7
3682.13
3650.5
3612.73
3561
3480.47
3342.91
3094.79
2635.49
1780.54
343.108
1054.32
15000
15000
15000
15000
15000
15000
15000
15000
15000
14999.9
14999.9
14999.9
14999.8
14999.7
14999.6
14999.5
14999.2
14999
14998.6
14998.1
14997.5
14996.7
14995.7
14994.4
14992.7
14990.7
14988
14984.8
14980.7
14975.7
14969.6
14962.1
14953
14942.1
14928.9
14913.3
14894.7
14872.7
14846.9
14816.8
14781.7
14741.1
14694.4
14640.9
14579.9
14510.7
14432.6
14344.9
14246.8
14137.7
14017
13883.9
13738.1
13578.8
13405.9
13218.9
13017.6
12802.1
12572.2
12328.4
12070.7
11799.8
11516.3
11220.9
10914.5
10598.1
10273
9940.44
9601.72
9258.35
8911.83
8563.73
8215.63
7869.15
7525.84
7187.27
6854.91
6530.18
6214.42
5908.85
5614.57
5332.59
5063.74
4808.76
4568.21
4342.54
4132.05
3936.9
3757.14
3592.7
3443.39
3308.93
3188.95
3083.01
2990.59
2911.13
2844.05
2788.71
2744.46
2710.65
2686.63
2671.75
2665.37
2666.88
2675.69
2691.24
2712.98
2740.41
2773.05
2810.46
2852.2
2897.89
2947.14
2999.61
3054.96
3112.87
3173.03
3235.16
3298.94
3364.11
3430.38
3497.46
3565.08
3632.95
3700.79
3768.33
3835.26
3901.32
3966.23
4029.7
4091.47
4151.28
4208.87
4264
4316.45
4365.99
4412.44
4455.62
4495.38
4531.57
4564.09
4592.84
4617.77
4638.81
4655.95
4669.19
4678.54
4684.04
4685.73
4683.71
4678.04
4668.83
4656.2
4640.28
4621.2
4599.11
4574.19
4546.59
4516.5
4484.12
4449.65
4413.29
4375.27
4335.81
4295.16
4253.56
4211.27
4168.53
4125.6
4082.76
4040.26
3998.34
3957.28
3917.29
3878.61
3841.42
3805.89
3772.11
3740.08
3709.61
3680.23
3650.89
3619.49
3582
3530.69
3450.86
3314.67
3069.37
2615.18
1762.01
342.999
1056.45
15000
15000
15000
15000
15000
15000
15000
15000
15000
14999.9
14999.9
14999.9
14999.8
14999.7
14999.6
14999.5
14999.2
14999
14998.6
14998.1
14997.5
14996.7
14995.7
14994.4
14992.8
14990.7
14988.1
14984.8
14980.8
14975.8
14969.7
14962.2
14953.2
14942.3
14929.2
14913.6
14895
14873.1
14847.4
14817.3
14782.3
14741.9
14695.3
14641.9
14581.1
14512.1
14434.2
14346.7
14248.8
14140
14019.5
13886.8
13741.2
13582.2
13409.6
13222.9
13022
12806.8
12577.3
12333.7
12076.3
11805.7
11522.4
11227.2
10920.9
10604.7
10279.6
9946.96
9608.14
9264.58
8917.79
8569.33
8220.78
7873.75
7529.8
7190.47
6857.27
6531.6
6214.79
5908.08
5612.58
5329.28
5059.04
4802.58
4560.49
4333.22
4121.07
3924.22
3742.72
3576.51
3425.4
3289.13
3167.32
3059.55
2965.31
2884.04
2815.16
2758.04
2712.04
2676.5
2650.79
2634.24
2626.24
2626.17
2633.45
2647.5
2667.79
2693.83
2725.12
2761.23
2801.74
2846.25
2894.39
2945.82
3000.19
3057.2
3116.54
3177.92
3241.05
3305.65
3371.44
3438.14
3505.48
3573.16
3640.92
3708.47
3775.53
3841.81
3907.04
3970.92
4033.2
4093.6
4151.86
4207.74
4260.99
4311.4
4358.76
4402.89
4443.62
4480.81
4514.33
4544.09
4570
4592.01
4610.09
4624.22
4634.43
4640.73
4643.19
4641.86
4636.84
4628.22
4616.12
4600.66
4582.01
4560.29
4535.69
4508.38
4478.55
4446.4
4412.13
4375.96
4338.11
4298.83
4258.35
4216.92
4174.81
4132.25
4089.53
4046.9
4004.61
3962.94
3922.11
3882.37
3843.94
3807.01
3771.73
3738.2
3706.41
3676.17
3647.01
3617.89
3586.74
3549.55
3498.67
3419.59
3284.82
3042.4
2594.28
1755.92
342.466
1058.66
15000
15000
15000
15000
15000
15000
15000
15000
15000
14999.9
14999.9
14999.9
14999.8
14999.7
14999.6
14999.5
14999.2
14999
14998.6
14998.2
14997.5
14996.8
14995.7
14994.4
14992.8
14990.7
14988.1
14984.9
14980.8
14975.9
14969.8
14962.3
14953.3
14942.4
14929.4
14913.8
14895.4
14873.5
14847.9
14817.9
14783
14742.7
14696.2
14643
14582.3
14513.5
14435.8
14348.5
14250.9
14142.4
14022.1
13889.7
13744.4
13585.8
13413.5
13227.1
13026.5
12811.7
12582.5
12339.2
12082.2
11811.8
11528.7
11233.7
10927.6
10611.5
10286.4
9953.8
9614.89
9271.15
8924.11
8575.3
8226.31
7878.74
7534.15
7194.09
6860.04
6533.42
6215.57
5907.72
5610.98
5326.35
5054.69
4796.74
4553.09
4324.18
4110.34
3911.75
3728.47
3560.43
3407.47
3269.33
3145.64
3035.98
2939.85
2856.7
2785.95
2726.97
2679.14
2641.8
2614.31
2596.02
2586.31
2584.58
2590.22
2602.69
2621.45
2646
2675.86
2710.6
2749.78
2793.03
2839.98
2890.28
2943.6
2999.62
3058.07
3118.63
3181.03
3244.99
3310.24
3376.49
3443.48
3510.93
3578.56
3646.08
3713.21
3779.68
3845.19
3909.46
3972.22
4033.19
4092.11
4148.73
4202.79
4254.06
4302.35
4347.44
4389.17
4427.38
4461.93
4492.71
4519.64
4542.66
4561.71
4576.79
4587.9
4595.05
4598.31
4597.73
4593.39
4585.4
4573.87
4558.93
4540.73
4519.43
4495.19
4468.21
4438.66
4406.76
4372.72
4336.77
4299.12
4260.03
4219.75
4178.51
4136.59
4094.25
4051.74
4009.33
3967.28
3925.85
3885.27
3845.8
3807.63
3770.96
3735.94
3702.66
3671.1
3641.1
3612.17
3583.27
3552.36
3515.47
3465.03
3386.69
3253.21
3012.92
2567.38
1726.24
339.883
1060.02
15000
15000
15000
15000
15000
15000
15000
15000
15000
14999.9
14999.9
14999.9
14999.8
14999.7
14999.6
14999.5
14999.3
14999
14998.6
14998.2
14997.6
14996.8
14995.8
14994.5
14992.8
14990.8
14988.2
14984.9
14980.9
14975.9
14969.9
14962.5
14953.5
14942.6
14929.6
14914.1
14895.7
14873.9
14848.4
14818.5
14783.7
14743.5
14697.2
14644.1
14583.6
14514.9
14437.5
14350.4
14253.1
14144.8
14024.8
13892.7
13747.7
13589.4
13417.4
13231.4
13031.2
12816.7
12587.9
12344.9
12088.2
11818.1
11535.3
11240.5
10934.6
10618.6
10293.6
9960.95
9621.96
9278.07
8930.79
8581.65
8232.24
7884.14
7538.92
7198.13
6863.25
6535.69
6216.8
5907.81
5609.83
5323.87
5050.79
4791.34
4546.1
4315.55
4099.99
3899.63
3714.53
3544.64
3389.79
3249.74
3124.12
3012.52
2914.44
2829.35
2756.67
2695.77
2646.04
2606.82
2577.48
2557.38
2545.89
2542.4
2546.34
2557.15
2574.29
2597.28
2625.62
2658.9
2696.68
2738.59
2784.26
2833.35
2885.53
2940.5
2997.96
3057.63
3119.23
3182.48
3247.12
3312.86
3379.45
3446.59
3514.02
3581.46
3648.63
3715.23
3780.98
3845.61
3908.82
3970.34
4029.89
4087.23
4142.08
4194.23
4243.44
4289.5
4332.23
4371.47
4407.07
4438.91
4466.89
4490.94
4511
4527.06
4539.1
4547.15
4551.25
4551.45
4547.84
4540.52
4529.6
4515.21
4497.51
4476.66
4452.82
4426.19
4396.96
4365.35
4331.58
4295.86
4258.44
4219.57
4179.5
4138.48
4096.77
4054.65
4012.37
3970.2
3928.4
3887.22
3846.91
3807.7
3769.8
3733.4
3698.64
3665.61
3634.3
3604.53
3575.82
3547.14
3516.47
3479.88
3429.88
3352.24
3219.87
2981
2535.68
1686.44
338.793
1062.04
15000
15000
15000
15000
15000
15000
15000
15000
15000
14999.9
14999.9
14999.9
14999.8
14999.7
14999.6
14999.5
14999.3
14999
14998.6
14998.2
14997.6
14996.8
14995.8
14994.5
14992.8
14990.8
14988.2
14985
14981
14976
14970
14962.6
14953.6
14942.8
14929.9
14914.4
14896.1
14874.4
14848.9
14819.1
14784.4
14744.3
14698.2
14645.2
14584.9
14516.5
14439.2
14352.4
14255.3
14147.2
14027.6
13895.8
13751.1
13593.2
13421.5
13235.9
13036
12821.9
12593.4
12350.8
12094.4
11824.6
11542.1
11247.5
10941.8
10625.9
10301
9968.4
9629.35
9285.33
8937.82
8588.37
8238.55
7889.94
7544.12
7202.61
6866.91
6538.43
6218.51
5908.39
5609.18
5321.89
5047.4
4786.44
4539.62
4307.41
4090.13
3887.99
3701.06
3529.29
3372.53
3230.53
3102.95
2989.36
2889.3
2802.23
2727.56
2664.69
2613
2571.85
2540.59
2518.6
2505.26
2499.96
2502.12
2511.19
2526.65
2547.98
2574.74
2606.47
2642.78
2683.27
2727.58
2775.38
2826.35
2880.19
2936.59
2995.3
3056.01
3118.48
3182.43
3247.6
3313.7
3380.48
3447.66
3514.96
3582.09
3648.78
3714.73
3779.66
3843.28
3905.32
3965.48
4023.51
4079.15
4132.14
4182.26
4229.29
4273.03
4313.31
4349.97
4382.88
4411.93
4437.03
4458.14
4475.2
4488.21
4497.18
4502.16
4503.18
4500.34
4493.72
4483.45
4469.66
4452.5
4432.12
4408.72
4382.48
4353.61
4322.31
4288.83
4253.38
4216.22
4177.59
4137.75
4096.96
4055.49
4013.6
3971.57
3929.65
3888.11
3847.19
3807.16
3768.22
3730.59
3694.46
3659.96
3627.19
3596.12
3566.58
3538.09
3509.63
3479.19
3442.89
3393.34
3316.43
3185.37
2949.18
2511.33
1692.67
339.746
1056.3
15000
15000
15000
15000
15000
15000
15000
15000
15000
14999.9
14999.9
14999.9
14999.8
14999.7
14999.6
14999.5
14999.3
14999
14998.6
14998.2
14997.6
14996.8
14995.8
14994.5
14992.9
14990.8
14988.2
14985
14981
14976.1
14970.1
14962.7
14953.8
14943.1
14930.1
14914.7
14896.4
14874.8
14849.4
14819.7
14785.2
14745.2
14699.2
14646.4
14586.3
14518
14441
14354.4
14257.5
14149.8
14030.5
13898.9
13754.6
13597
13425.8
13240.5
13041
12827.2
12599.1
12356.8
12100.8
11831.3
11549.1
11254.7
10949.2
10633.5
10308.7
9976.14
9637.06
9292.92
8945.2
8595.46
8245.25
7896.16
7549.75
7207.55
6871.05
6541.67
6220.74
5909.5
5609.07
5320.48
5044.58
4782.13
4533.73
4299.87
4080.87
3876.94
3688.17
3514.51
3355.82
3211.86
3082.29
2966.71
2864.63
2775.53
2698.84
2633.96
2580.27
2537.13
2503.91
2479.98
2464.72
2457.54
2457.87
2465.13
2478.83
2498.45
2523.54
2553.67
2588.42
2627.41
2670.3
2716.73
2766.42
2819.04
2874.31
2931.97
2991.74
3053.35
3116.54
3181.05
3246.61
3312.96
3379.81
3446.9
3513.95
3580.66
3646.75
3711.94
3775.92
3838.43
3899.16
3957.86
4014.24
4068.06
4119.08
4167.06
4211.81
4253.12
4290.84
4324.83
4354.96
4381.14
4403.29
4421.39
4435.39
4445.32
4451.2
4453.08
4451.04
4445.17
4435.58
4422.42
4405.83
4385.97
4363.04
4337.23
4308.73
4277.79
4244.62
4209.47
4172.58
4134.22
4094.64
4054.1
4012.88
3971.25
3929.48
3887.82
3846.55
3805.91
3766.15
3727.49
3690.14
3654.28
3620.05
3587.53
3556.7
3527.38
3499.1
3470.85
3440.64
3404.64
3355.54
3279.46
3150.03
2917.36
2487.11
1681.94
340.653
1046.89
15000
15000
15000
15000
15000
15000
15000
15000
15000
14999.9
14999.9
14999.9
14999.8
14999.7
14999.6
14999.5
14999.3
14999
14998.6
14998.2
14997.6
14996.8
14995.8
14994.5
14992.9
14990.9
14988.3
14985.1
14981.1
14976.2
14970.2
14962.9
14954
14943.3
14930.4
14915.1
14896.8
14875.3
14850
14820.4
14786
14746.1
14700.2
14647.6
14587.7
14519.6
14442.8
14356.5
14259.9
14152.4
14033.4
13902.2
13758.2
13601
13430.1
13245.2
13046.1
12832.7
12604.9
12363.1
12107.3
11838.2
11556.3
11262.2
10956.9
10641.4
10316.7
9984.18
9645.07
9300.83
8952.94
8602.92
8252.35
7902.79
7555.81
7212.94
6875.67
6545.41
6223.49
5911.16
5609.55
5319.66
5042.37
4778.45
4528.49
4292.99
4072.28
3866.58
3675.97
3500.43
3339.81
3193.89
3062.32
2944.72
2840.6
2749.46
2670.72
2603.8
2548.07
2502.9
2467.67
2441.76
2424.55
2415.44
2413.86
2419.27
2431.15
2448.99
2472.36
2500.8
2533.93
2571.36
2612.74
2657.75
2706.07
2757.4
2811.48
2868.01
2926.75
2987.43
3049.79
3113.57
3178.51
3244.35
3310.82
3377.63
3444.52
3511.2
3577.37
3642.75
3707.05
3769.97
3831.23
3890.55
3947.65
4002.27
4054.15
4103.06
4148.79
4191.13
4229.91
4264.97
4296.19
4323.45
4346.67
4365.81
4380.83
4391.74
4398.55
4401.32
4400.11
4395.01
4386.14
4373.64
4357.65
4338.35
4315.92
4290.56
4262.49
4231.92
4199.1