<?xml version="1.0"?>
<VTKFile type="PolyData" version="0.1" byte_order="LittleEndian">
  <PolyData>
    <Piece NumberOfPoints="50000" NumberOfVerts="50000" NumberOfLines="0" NumberOfStrips="0" NumberOfPolys="0">
      <Points>
        <DataArray type="Float32" NumberOfComponents="3" format="ascii">
0.419598 0.00857168 0
-0.399073 0.0028132 0
0.406678 -0.00312735 0
0.424636 -0.00260208 0
-0.347318 0.00637697 0
-0.29186 0.00205007 0
0.139589 -0.0275237 0
-0.358778 -0.000219915 0
0.1231 -0.0215089 0
-0.0286437 0.00921368 0
0.319025 -0.0135868 0
0.404974 0.00777412 0
-0.234013 0.00717811 0
-0.166363 -0.0259324 0
-0.435981 0.00218661 0
0.328961 0.0125227 0
-0.0611667 -0.00248927 0
0.42121 0.00135115 0
0.159545 0.00120075 0
-0.399627 0.00369099 0
-0.418647 0.00560224 0
0.365055 0.0067439 0
-0.413286 0.00247514 0
0.410596 -0.000394272 0
0.261561 -0.0136745 0
0.305954 0.0132553 0
-0.409941 -0.00814947 0
0.421697 -0.00394654 0
-0.293642 0.0244886 0
-0.431376 0.00935732 0
-0.32486 0.0124786 0
-0.30212 -0.0175868 0
0.417668 0.000462095 0
0.4205 -0.00147227 0
0.0798713 0.00512094 0
0.427553 -0.00209792 0
0.129642 0.00128236 0
-0.427736 0.00248188 0
-0.40049 -0.00571304 0
-0.445079 -0.00283071 0
0.308415 0.0135079 0
0.325963 0.00615363 0
-0.408579 -0.00264611 0
0.41502 0.000364333 0
0.430146 0.0010159 0
-0.420763 0.00900854 0
0.408912 0.00482669 0
0.209643 -0.0160225 0
0.403738 -6.07502e-06 0
0.413339 -0.000181727 0
0.173277 0.0223512 0
-0.412467 -0.00125269 0
-0.286963 0.00973328 0
0.407948 0.0027167 0
-0.406115 0.00243309 0
-0.432938 0.00259154 0
0.420127 -0.00169407 0
0.169551 0.0119581 0
0.314243 0.00766546 0
0.433766 -0.0054915 0
0.354257 0.0047298 0
0.424592 0.00244483 0
0.0934511 -0.0340732 0
0.433746 -0.00218398 0
-0.14014 0.0175934 0
-0.40486 0.00140657 0
0.412235 -0.00127085 0
0.423562 -0.000984044 0
0.438142 0.00394554 0
0.30324 0.000750913 0
-0.4097 0.00333535 0
0.411632 0.00363071 0
0.224716 0.0010102 0
0.229833 0.00691694 0
0.195937 0.00517542 0
-0.415634 -0.00270636 0
0.360023 0.0128587 0
-0.394696 0.00446056 0
0.317487 0.00696925 0
-0.432008 0.00164635 0
-0.218065 -0.0355273 0
-0.423189 0.00455373 0
0.389153 0.00507749 0
-0.411326 0.000631555 0
0.433231 -0.00525331 0
-0.412459 0.0034257 0
0.433995 -0.00515326 0
-0.185805 -0.00904499 0
-0.179806 0.0239329 0
-0.415924 -0.00749765 0
0.407906 0.00671073 0
-0.406862 -0.000695995 0
0.41002 -0.00212666 0
-0.280712 0.0203473 0
-0.042621 -0.0229653 0
-0.366134 0.0054394 0
0.40918 0.00885144 0
-0.419513 0.003358 0
-0.442509 0.00762902 0
-0.438937 -0.00111501 0
-0.368103 -0.00794899 0
-0.408374 -0.00592677 0
0.436873 -0.000894573 0
-0.177221 -0.0216287 0
0.439965 -0.000755127 0
0.360241 0.0130405 0
0.264891 0.0067954 0
0.0210416 0.00809418 0
0.404416 0.00452904 0
-0.413859 -0.00486646 0
-0.312345 0.0204098 0
-0.419925 0.00326449 0
-0.358505 0.0109115 0
310.178 448.689 0
0.275809 0.00749623 0
-0.413883 0.00367919 0
-0.42917 0.00457072 0
7.96981 10.9025 0
-0.416847 0.00168426 0
-0.0214965 -0.0091782 0
0.421855 -0.00167057 0
-0.40209 -0.0039819 0
0.284653 -0.0037997 0
-0.38459 0.00765129 0
0.414104 -0.000895773 0
0.402473 -0.00116569 0
0.132209 0.0247578 0
0.425455 0.00442669 0
-0.372995 -0.00722906 0
0.32107 -0.00110207 0
0.427828 -0.00347837 0
0.424421 -0.000606253 0
-0.440767 0.000732084 0
-0.367745 0.00414493 0
0.434619 -0.00205414 0
0.413084 -0.00124814 0
0.398385 -0.00307603 0
-0.0666459 0.00315705 0
0.333145 -0.014862 0
0.324093 -0.0125097 0
0.333004 -0.0150994 0
0.395213 0.00985808 0
0.426924 -0.00370043 0
-0.0995336 -0.0146285 0
-0.427262 0.0069406 0
0.283586 -0.0235285 0
-0.273869 0.0207322 0
-0.421513 0.00201159 0
-0.301657 -0.0207602 0
-0.422827 0.00377051 0
0.32224 0.00754582 0
0.410308 0.00219821 0
-0.128689 -0.0123801 0
0.334184 -0.0108506 0
0.332328 0.0085562 0
0.40684 0.00387979 0
0.278625 -0.0102147 0
-0.414317 0.00282676 0
-0.179092 -0.00632252 0
0.425708 -0.000570297 0
0.284416 -0.00186105 0
-0.375993 -0.00317099 0
-0.407079 0.00255009 0
-0.42324 0.00261913 0
-0.10977 0.0102686 0
0.32796 -0.00672845 0
0.370707 -0.00597066 0
0.375519 0.00367485 0
0.313801 0.00806438 0
-0.174238 0.000483769 0
0.438482 -0.00527497 0
-0.405783 0.00315325 0
-0.0966283 -0.00625635 0
0.423731 0.00433579 0
-0.0778137 -0.00372255 0
-0.327893 0.016231 0
-0.406879 0.002505 0
-0.24786 -0.0115886 0
-0.412464 -0.00251053 0
-0.414251 -0.00694152 0
0.406272 -0.00027504 0
-0.419022 0.00658519 0
-0.412665 0.00554008 0
0.419405 0.00537695 0
0.409211 -0.001135 0
0.31649 -0.0181613 0
0.439417 -0.00374815 0
0.434819 0.000266654 0
0.421564 -0.0040323 0
0.0469417 0.030635 0
0.428761 -0.00399862 0
0.347265 -0.00965807 0
-0.280015 -0.0192346 0
0.386537 0.00651015 0
-0.383544 0.00651123 0
0.406179 0.00162738 0
-0.341825 0.0120913 0
-0.364172 0.0054013 0
-0.408607 0.00390462 0
0.411268 0.00495758 0
-0.273209 0.0195932 0
0.433705 0.0026424 0
0.376202 -0.00586495 0
-0.0861438 -0.00752479 0
0.439201 -0.00538067 0
-0.402657 -0.00843732 0
0.0570167 0.0497024 0
0.17402 -0.00708488 0
-0.364778 0.0110188 0
-0.257191 -0.0107256 0
0.402211 0.000413726 0
-0.179589 -0.0219906 0
0.379069 -0.0039914 0
-0.352551 0.0113465 0
-0.241887 -0.0166047 0
-0.423168 0.00620573 0
-0.417528 0.00790705 0
0.416898 -0.000495399 0
-0.429279 -0.00159611 0
-0.0507626 0.0217379 0
-0.330331 0.0120867 0
-0.428371 0.00366144 0
-0.397842 -0.00680309 0
0.435543 -0.00326656 0
0.154209 0.0255679 0
-0.407118 0.00304359 0
0.437878 0.000994592 0
0.420009 -0.00106545 0
-0.361978 0.0100367 0
-0.426592 -0.000752209 0
-0.419807 -0.00412637 0
0.408553 0.00423725 0
0.212982 0.0244425 0
-0.0651173 0.0154841 0
-0.43453 0.00448694 0
-0.374206 0.00600376 0
0.321401 -0.0184429 0
-0.329484 -0.00480065 0
-0.415289 0.0033349 0
0.254478 -0.00322859 0
0.429822 -0.0002302 0
-0.381252 -0.00721198 0
-0.420033 0.00337814 0
-0.243266 -0.0147711 0
0.209857 0.0069545 0
0.375358 0.00417638 0
-0.396684 0.00719329 0
0.420369 -0.0010622 0
0.432885 0.00258419 0
0.24822 0.0129106 0
0.258907 0.00438929 0
-0.395015 0.00513078 0
0.406187 -0.00325226 0
-0.18719 -0.0099633 0
-0.382172 0.00833686 0
0.406758 -0.000486875 0
-0.370426 0.00812622 0
0.360125 0.0091962 0
0.156034 0.0242357 0
0.225074 0.00010144 0
0.432658 0.000758957 0
-0.394869 0.00495071 0
0.0788994 -0.00877211 0
0.0393617 -0.0147378 0
-0.28178 0.00341414 0
-0.414663 0.000966862 0
-0.408401 0.00290341 0
-0.405496 -0.00159789 0
0.416657 -0.00126887 0
0.413488 -0.00103232 0
0.425916 -0.00118917 0
-0.418359 -0.00312729 0
0.273259 0.00302854 0
0.0224383 0.0128647 0
-0.436978 0.005104 0
-0.424907 0.00224246 0
0.404669 -0.00060795 0
-0.406119 0.00299089 0
0.401914 0.00659739 0
-0.41199 -0.00165994 0
-0.3996 -0.000295719 0
-0.185253 -0.0240509 0
-0.418561 0.0024224 0
0.395138 -0.00247419 0
-0.35584 0.0110222 0
-0.400816 -0.00350555 0
-0.159253 0.0205628 0
-0.417306 0.00326584 0
-0.423942 0.00381926 0
0.356372 -0.00341248 0
-0.149022 0.00690806 0
0.416081 -0.00118053 0
0.425216 -0.00323244 0
0.271137 0.0142982 0
0.431988 0.00325975 0
0.410001 0.00626006 0
0.430334 0.00420325 0
-0.287082 0.0241197 0
-0.392021 0.0019977 0
-0.435888 0.000820458 0
0.441284 0.000753341 0
-0.0592127 0.0075217 0
0.414705 -0.00204089 0
0.404698 0.00322608 0
0.42705 -0.000980278 0
0.0730241 0.0125321 0
-0.220153 0.0258847 0
0.359638 0.00541231 0
-0.0506335 0.000253561 0
-0.204936 0.00957024 0
-0.34292 0.0118645 0
0.415891 0.00671712 0
-0.303653 0.0149746 0
0.385031 -0.00577732 0
0.317276 -0.0051271 0
-0.434415 0.00639666 0
0.338528 -0.0154918 0
0.436721 -0.00561898 0
0.390518 -0.00333308 0
0.417276 0.00750378 0
-0.423822 0.00545297 0
-0.0931562 0.0154993 0
0.425911 0.00196796 0
0.423903 -0.0011835 0
0.195593 0.025626 0
-0.404398 -0.000598801 0
-0.396814 0.00509493 0
0.436414 0.000316619 0
-0.405674 -0.00329303 0
0.420836 0.00238711 0
0.42386 -0.00273882 0
0.202977 -0.0245525 0
0.406098 0.00347091 0
-0.416276 0.00331731 0
-0.356225 -0.000782873 0
-0.239302 -0.00278695 0
0.033423 -0.00822415 0
0.0504683 -0.0307317 0
-0.381868 0.00336933 0
0.18881 -0.027248 0
-0.0447541 0.0420707 0
-0.429782 0.00620563 0
-0.307281 0.0140306 0
-0.419582 0.00450467 0
-0.174103 -0.0142795 0
0.423579 0.00694795 0
-0.298404 0.0157793 0
-0.42465 -0.000170949 0
-68.6183 283.82 0
0.422668 -0.00565939 0
0.421581 -0.00134529 0
-0.346233 0.0145815 0
0.409829 0.00289493 0
0.388839 -0.00123171 0
-612.892 -1096.06 0
0.129193 0.0150691 0
-0.420317 0.00375611 0
-0.349621 -0.00270133 0
0.418623 0.0034978 0
4.32922 -8.91896 0
0.396252 0.00501962 0
-0.411346 -0.00635268 0
-0.262802 0.000138821 0
-0.417747 -0.00351548 0
-0.425922 0.00689768 0
0.415478 -0.00122801 0
-0.432638 -0.00160399 0
-0.375134 0.00940933 0
0.326095 0.0129076 0
-0.407693 -4.63256e-05 0
-0.33988 0.0145966 0
-0.377004 0.00841374 0
0.419826 0.0042178 0
0.378532 -0.00741853 0
-0.251163 0.0196783 0
0.431562 -0.00233532 0
-0.420505 -0.00596893 0
-0.391306 -0.00389415 0
-0.425059 0.00121783 0
0.036609 -0.0325678 0
-0.409216 -0.00565018 0
0.414008 0.00425179 0
-0.417149 0.00372325 0
-0.41485 0.00197423 0
-0.102433 0.0156025 0
0.271158 0.0141027 0
-0.135876 0.0378026 0
0.0891473 0.0213395 0
-0.420874 0.00397324 0
-0.0763 0.00364253 0
-0.421625 -0.00109637 0
-0.423821 0.00561966 0
0.404679 -0.00622968 0
0.356569 0.00966074 0
-0.396577 0.00656883 0
0.37603 0.00490975 0
0.373586 0.00126932 0
-0.40444 0.00308652 0
-0.223421 -0.00747824 0
0.295568 -0.0180617 0
-0.404886 0.000785706 0
0.357936 -0.00940115 0
0.163774 -0.00511973 0
-0.41625 -0.00112289 0
0.388821 -0.000776359 0
0.40903 -0.00255652 0
0.415324 -0.00505533 0
0.423136 -0.00176377 0
0.430345 -0.000108963 0
0.407782 0.00701604 0
-0.418914 0.00279609 0
0.301002 0.00994219 0
-0.346214 -0.00533526 0
0.197707 0.0277041 0
-0.394418 0.00275265 0
-0.141081 -0.00591359 0
-0.327205 0.012135 0
0.119225 -0.0146918 0
-0.427638 0.00398299 0
0.408373 -0.00124955 0
-0.115445 0.0306714 0
0.146199 0.0160879 0
-0.433394 0.0034376 0
0.411315 0.0018169 0
0.424019 -0.000844228 0
0.40509 0.00884944 0
0.432999 -0.00499425 0
-0.413213 0.00330709 0
-0.426277 0.00254114 0
[...]
      <PointData Scalars="T">
        <DataArray type="Float32" Name="T" format="ascii" NumberOfComponents="1">
315.887
441.175
315.128
315.128
441.175
441.175
315.128
455.098
315.128
441.175
315.128
315.887
441.175
455.098
441.175
315.887
455.098
305.934
303.914
441.175
441.175
315.887
441.175
315.128
315.128
315.887
455.098
315.128
441.175
441.175
441.175
455.098
308.062
315.128
315.887
315.128
304.155
441.175
455.098
455.098
315.887
315.887
455.098
311.83
301.779
441.175
315.887
315.128
315.128
315.128
315.887
455.098
441.175
315.887
441.175
441.175
315.128
315.887
315.887
315.128
315.887
315.887
315.128
315.128
441.175
857.239
315.128
315.128
315.887
303.414
441.175
315.887
301.779
315.887
315.887
455.098
315.887
441.175
315.887
767.243
455.098
441.175
315.887
757.38
315.128
441.175
315.128
455.098
441.175
455.098
315.887
455.098
315.128
441.175
455.098
441.175
315.887
441.175
441.175
455.098
455.098
455.098
315.128
455.098
315.128
315.887
315.887
315.887
315.887
455.098
441.175
441.175
441.175
315.887
315.887
441.175
441.175
315.887
780.662
455.098
315.128
455.098
315.128
441.175
315.128
315.128
315.887
315.887
455.098
315.128
315.128
315.128
899.132
441.175
315.128
315.128
315.128
441.175
315.128
315.128
315.128
315.887
315.128
455.098
441.175
315.128
441.175
441.175
455.098
441.175
315.887
315.887
455.098
315.128
315.887
315.887
315.128
441.175
455.098
315.128
315.128
455.098
441.175
441.175
441.175
315.128
315.128
315.887
315.887
782.05
315.128
441.175
455.098
315.887
455.098
441.175
441.175
455.098
455.098
455.098
315.128
441.175
441.175
315.887
315.128
315.128
315.128
316.926
315.128
315.887
315.128
315.128
455.098
315.887
441.175
314.323
441.175
441.175
441.175
315.887
441.175
315.887
315.128
455.098
315.128
455.098
315.887
315.128
441.175
455.098
310.257
455.098
315.128
441.175
455.098
441.175
441.175
315.128
455.098
441.175
441.175
441.175
455.098
315.128
315.887
441.175
301.978
315.128
441.175
455.098
455.098
315.887
315.887
441.175
441.175
441.175
315.128
455.098
441.175
315.128
315.128
455.098
441.175
455.098
315.887
315.887
441.175
315.128
315.887
315.887
315.887
441.175
315.128
455.098
441.175
315.128
441.175
315.887
315.887
322.341
303.414
441.175
315.128
315.128
441.175
793.038
441.175
455.098
315.128
315.128
315.128
455.098
315.887
315.887
441.175
441.175
315.128
441.175
315.887
455.098
455.098
455.098
441.175
315.128
441.175
455.098
441.175
441.175
441.175
315.128
441.175
315.128
315.128
315.887
315.887
315.887
315.887
441.175
441.175
797.972
303.414
441.175
315.128
315.887
315.128
315.887
441.175
315.887
744.877
441.175
441.175
315.887
441.175
315.128
315.128
441.175
315.128
315.128
315.128
315.887
441.175
441.175
315.887
315.128
315.887
455.098
441.175
314.054
455.098
315.887
315.128
315.128
315.887
441.175
455.098
455.098
315.128
315.128
441.175
315.128
441.175
441.175
441.175
441.175
455.098
315.887
441.175
455.098
441.175
315.128
315.128
441.175
315.887
315.128
455.098
315.887
441.175
455.098
315.887
315.128
315.887
455.098
759.148
455.098
441.175
315.128
455.098
441.175
315.887
455.098
441.175
441.175
315.887
315.128
441.175
315.128
455.098
455.098
856.04
315.128
455.098
315.887
441.175
441.175
441.175
315.887
441.175
315.887
441.175
441.175
455.098
441.175
315.128
315.887
441.175
315.887
304.1
441.175
455.098
315.128
780.057
315.128
315.128
455.098
315.128
315.128
315.128
315.128
315.128
315.887
441.175
315.887
455.098
315.887
441.175
455.098
441.175
315.128
441.175
315.128
441.175
315.887
441.175
327.086
315.128
315.887
315.128
441.175
441.175
315.128
441.175
315.887
441.175
315.887
856.717
455.098
441.175
441.175
315.887
305.558
441.175
315.128
730.041
455.098
455.098
441.175
455.098
315.887
315.128
455.098
315.887
455.098
455.098
315.128
315.128
455.098
441.175
770.062
455.098
305.876
455.098
320.019
441.175
455.098
315.128
315.887
455.098
455.098
441.175
441.175
315.887
769.645
315.128
315.128
315.887
441.175
441.175
441.175
315.128
315.887
783.452
455.098
455.098
441.175
304.391
315.887
315.128
302.561
441.175
315.887
315.887
301.931
441.175
315.887
315.128
455.098
315.128
441.175
441.175
441.175
455.098
455.098
455.098
455.098
455.098
315.128
315.128
315.128
315.887
315.128
315.887
315.887
455.098
315.887
441.175
315.128
315.887
441.175
315.887
441.175
774.477
441.175
768.233
315.887
315.128
315.887
315.128
315.128
315.128
441.175
315.887
315.887
730.307
315.887
742.285
441.175
455.098
315.128
315.128
441.175
441.175
455.098
455.098
455.098
315.887
315.887
315.887
315.887
455.098
441.175
315.887
441.175
309.843
315.887
455.098
441.175
315.128
441.175
315.887
315.887
455.098
315.887
455.098
315.128
839.438
441.175
303.914
315.128
455.098
455.098
800.603
441.175
441.175
315.887
315.128
315.128
304.329
315.887
455.098
768.416
455.098
455.098
441.175
315.887
315.128
441.175
315.887
455.098
301.971
315.887
321.205
441.175
315.887
455.098
857.613
315.887
315.128
455.098
315.887
441.175
315.128
315.128
315.887
315.128
455.098
455.098
441.175
910.301
315.887
455.098
315.128
455.098
455.098
315.887
315.128
455.098
455.098
441.175
441.175
315.128
315.128
441.175
455.098
455.098
315.887
315.128
441.175
441.175
315.128
315.128
315.887
315.887
441.175
455.098
455.098
455.098
455.098
315.887
441.175
315.887
315.887
455.098
441.175
315.128
315.128
455.098
441.175
315.128
455.098
455.098
441.175
315.128
455.098
441.175
315.887
441.175
441.175
315.128
315.887
441.175
315.887
315.128
441.175
315.887
315.128
441.175
441.175
315.128
315.128
315.128
315.887
315.887
455.098
455.098
441.175
441.175
315.887
441.175
455.098
307.35
315.887
441.175
441.175
441.175
315.128
315.887
315.887
315.887
441.175
315.128
315.128
815.329
441.175
315.887
315.128
315.887
315.887
315.887
441.175
315.887
315.887
315.128
441.175
315.887
441.175
315.128
315.887
315.128
315.887
315.128
441.175
315.887
816.572
315.887
441.175
441.175
441.175
315.128
455.098
315.887
441.175
315.128
315.887
455.098
315.128
811.989
455.098
455.098
441.175
441.175
441.175
315.128
315.128
315.128
315.128
315.128
744.877
315.887
441.175
455.098
315.128
315.128
441.175
305.876
441.175
315.887
441.175
441.175
441.175
455.098
455.098
307.106
441.175
315.887
441.175
455.098
441.175
455.098
455.098
315.128
315.887
315.128
441.175
455.098
441.175
441.175
455.098
441.175
455.098
315.887
441.175
455.098
315.128
315.128
315.128
441.175
441.175
455.098
315.887
455.098
304.155
441.175
455.098
455.098
315.887
315.128
315.887
313.299
315.128
441.175
441.175
315.128
441.175
315.887
441.175
315.887
441.175
455.098
315.887
441.175
310.575
441.175
441.175
315.128
303.942
455.098
315.887
315.128
307.591
315.887
441.175
455.098
455.098
315.887
441.175
312.406
315.887
315.128
315.128
455.098
441.175
317.362
441.175
441.175
315.128
315.128
315.887
315.128
441.175
455.098
315.887
441.175
315.887
315.887
441.175
441.175
315.887
879.952
315.128
315.128
441.175
441.175
315.128
307.005
441.175
455.098
455.098
315.887
309.15
767.129
441.175
441.175
762.479
455.098
315.128
441.175
315.128
441.175
315.128
315.128
785.38
315.128
441.175
315.887
315.128
441.175
455.098
315.887
315.128
315.887
315.887
315.887
315.887
441.175
315.887
315.128
455.098
315.128
315.887
441.175
315.128
315.128
315.887
441.175
441.175
455.098
315.128
455.098
315.128
455.098
441.175
441.175
315.887
455.098
455.098
455.098
315.128
813.932
441.175
315.128
315.887
455.098
455.098
315.128
441.175
315.128
315.128
455.098
315.887
455.098
315.887
315.128
315.887
315.128
315.887
315.887
441.175
315.887
315.128
315.128
441.175
315.128
455.098
441.175
455.098
315.128
315.887
441.175
455.098
441.175
315.128
441.175
441.175
315.128
315.128
315.887
315.887
441.175
441.175
315.128
441.175
315.887
441.175
455.098
310.575
455.098
315.128
441.175
455.098
441.175
441.175
441.175
756.061
455.098
441.175
441.175
315.887
787.128
315.128
315.128
315.128
315.128
315.887
441.175
315.128
441.175
315.887
441.175
315.887
315.887
455.098
315.887
441.175
315.128
315.887
315.128
455.098
315.128
441.175
305.642
455.098
455.098
315.887
455.098
441.175
441.175
455.098
315.128
315.887
315.887
315.887
455.098
315.128
455.098
315.128
317.072
315.887
315.887
315.887
315.128
315.128
455.098
315.887
315.887
455.098
441.175
315.128
441.175
301.968
441.175
455.098
441.175
758.318
455.098
441.175
315.887
455.098
315.887
441.175
315.128
441.175
315.887
441.175
441.175
315.887
315.887
441.175
315.128
315.887
315.128
309.843
455.098
441.175
455.098
902.887
315.128
441.175
323.411
441.175
441.175
315.128
315.128
441.175
315.887
315.128
315.128
315.128
441.175
315.128
315.887
441.175
441.175
441.175
455.098
441.175
315.128
441.175
315.128
455.098
326.325
315.128
315.887
441.175
455.098
455.098
441.175
315.128
315.887
455.098
315.128
303.154
455.098
455.098
315.128
441.175
305.934
315.128
315.887
455.098
441.175
441.175
441.175
315.887
831.984
315.887
441.175
441.175
315.128
315.887
315.887
315.128
315.887
455.098
816.683
455.098
441.175
315.128
315.887
315.887
315.887
315.887
315.887
455.098
441.175
441.175
441.175
455.098
441.175
441.175
325.287
315.128
315.128
315.128
315.128
441.175
315.128
441.175
307.35
455.098
441.175
315.887
441.175
875.062
315.128
869.992
315.128
315.128
315.128
315.128
315.887
315.887
315.128
315.887
455.098
301.971
441.175
315.887
315.887
315.128
455.098
315.128
455.098
315.887
315.887
315.887
315.887
441.175
315.128
441.175
315.887
315.128
315.128
849.372
847.769
847.977
315.128
315.128
455.098
315.887
441.175
315.887
315.128
455.098
441.175
731.921
315.128
315.887
441.175
315.128
441.175
315.887
441.175
441.175
731.921
441.175
315.128
315.128
455.098
441.175
441.175
441.175
315.128
455.098
315.887
441.175
315.887
315.887
441.175
441.175
315.887
441.175
315.128
315.128
315.128
441.175
310.569
315.128
455.098
441.175
315.128
441.175
315.128
441.175
441.175
315.128
455.098
455.098
315.128
315.128
315.887
315.128
315.887
455.098
315.887
315.887
441.175
441.175
315.128
441.175
315.887
301.779
769.645
441.175
315.887
848.898
742.263
303.107
315.128
455.098
441.175
315.128
441.175
787.128
455.098
455.098
441.175
315.128
315.128
441.175
441.175
315.128
455.098
315.128
315.887
315.887
441.175
441.175
315.128
745.88
315.887
441.175
315.887
315.128
441.175
315.128
315.128
455.098
441.175
455.098
455.098
441.175
441.175
441.175
441.175
315.887
315.128
315.128
441.175
315.128
441.175
441.175
315.128
441.175
441.175
315.887
441.175
455.098
315.128
455.098
455.098
315.887
441.175
315.887
315.887
315.128
315.128
441.175
315.887
309.232
441.175
441.175
315.887
441.175
441.175
320.019
315.128
315.128
455.098
315.128
441.175
313.183
315.128
830.568
441.175
441.175
315.128
315.128
441.175
441.175
441.175
455.098
315.887
455.098
315.128
455.098
455.098
315.128
315.887
315.128
455.098
315.887
315.128
315.887
781.517
315.128
809.909
455.098
441.175
441.175
759.148
455.098
455.098
315.887
315.887
455.098
441.175
441.175
315.128
441.175
441.175
441.175
455.098
455.098
315.128
315.128
315.887
441.175
315.887
315.887
315.128
455.098
315.128
324.308
315.887
305.999
315.887
441.175
814.487
855.086
441.175
441.175
315.128
455.098
455.098
315.887
441.175
455.098
441.175
760.853
441.175
441.175
455.098
315.128
455.098
455.098
441.175
455.098
441.175
315.128
455.098
441.175
315.128
315.128
315.128
455.098
455.098
441.175
315.887
441.175
455.098
316.554
441.175
441.175
441.175
315.887
441.175
315.887
315.887
315.128
455.098
315.128
309.661
455.098
823.988
315.128
315.887
455.098
441.175
441.175
315.128
441.175
455.098
441.175
315.887
315.887
315.128
315.887
455.098
441.175
441.175
315.128
315.887
441.175
315.887
315.887
455.098
455.098
455.098
315.887
315.887
315.887
441.175
315.887
812.194
315.887
441.175
441.175
441.175
315.887
315.128
315.128
315.128
455.098
315.128
315.128
779.01
441.175
315.887
315.887
315.128
441.175
315.128
441.175
315.128
315.887
315.128
304.207
455.098
441.175
455.098
315.887
315.128
315.128
315.128
441.175
315.887
441.175
315.887
315.128
315.887
455.098
326.105
441.175
315.887
315.887
315.128
455.098
315.128
315.128
315.128
315.128
315.887
816.683
315.887
315.128
441.175
455.098
455.098
740.739
441.175
441.175
745.837
441.175
315.128
315.128
455.098
315.887
441.175
441.175
441.175
315.128
455.098
455.098
315.887
315.128
315.887
315.887
315.887
441.175
315.887
315.887
315.128
315.887
441.175
312.465
797.987
455.098
455.098
315.128
455.098
441.175
441.175
441.175
441.175
441.175
815.585
441.175
315.887
315.887
315.128
441.175
315.128
441.175
315.128
315.887
441.175
302.356
315.128
315.887
315.887
315.128
770.062
315.128
304.856
441.175
315.887
441.175
315.887
441.175
315.128
315.128
441.175
441.175
455.098
441.175
455.098
441.175
315.128
315.128
315.128
455.098
315.887
441.175
315.128
455.098
315.887
441.175
441.175
455.098
441.175
315.128
315.128
455.098
315.128
315.887
455.098
441.175
315.128
315.887
441.175
315.887
315.887
315.128
315.128
315.128
455.098
441.175
455.098
455.098
315.887
315.128
315.887
304.084
315.128
441.175
846.216
455.098
315.128
304.496
315.128
315.128
441.175
315.128
315.887
315.887
315.887
315.128
315.887
441.175
441.175
441.175
315.887
441.175
441.175
315.128
303.164
315.128
301.847
441.175
315.887
441.175
315.887
315.887
441.175
315.128
455.098
455.098
455.098
315.128
455.098
455.098
441.175
455.098
455.098
441.175
455.098
455.098
785.142
315.128
441.175
441.175
315.887
315.887
315.128
315.128
315.887
441.175
441.175
315.887
455.098
455.098
315.887
441.175
455.098
315.887
315.887
315.128
441.175
441.175
315.128
441.175
441.175
315.128
455.098
303.821
315.128
315.128
315.128
441.175
441.175
441.175
315.128
441.175
441.175
441.175
441.175
455.098
441.175
315.887
455.098
441.175
441.175
315.887
441.175
315.128
441.175
769.92
315.887
441.175
455.098
315.128
315.128
455.098
455.098
832.175
315.128
765.165
441.175
745.88
455.098
441.175
455.098
455.098
315.887
315.128
455.098
441.175
315.128
315.887
315.128
455.098
315.128
315.128
315.887
315.887
441.175
455.098
441.175
441.175
315.887
441.175
315.887
441.175
455.098
455.098
315.128
301.811
455.098
441.175
315.128
784.658
315.887
315.128
315.887
315.128
315.128
315.887
441.175
455.098
455.098
441.175
315.128
315.128
455.098
315.128
765.114
441.175
441.175
455.098
441.175
315.887
315.128
441.175
455.098
315.887
315.887
441.175
315.128
441.175
315.128
315.128
315.128
441.175
315.887
315.128
315.128
315.887
455.098
301.863
455.098
455.098
315.128
315.128
455.098
441.175
315.887
315.128
315.128
455.098
455.098
441.175
315.887
315.887
455.098
315.887
315.128
812.492
315.128
315.887
441.175
455.098
455.098
441.175
441.175
780.672
441.175
441.175
315.887
455.098
303.285
455.098
455.098
315.887
441.175
441.175
441.175
455.098
315.128
441.175
455.098
315.887
441.175
759.698
441.175
315.887
315.128
315.887
315.128
455.098
455.098
441.175
455.098
441.175
441.175
455.098
441.175
441.175
315.128
315.887
315.887
317.077
308.062
455.098
455.098
315.887
315.887
455.098
455.098
441.175
315.128
441.175
441.175
441.175
315.128
441.175
315.128
315.887
306.022
315.128
441.175
315.887
441.175
441.175
455.098
315.887
441.175
315.887
304.861
315.887
315.128
441.175
455.098
324.692
315.128
304.155
315.887
315.887
315.128
455.098
315.128
315.128
441.175
842.145
441.175
315.128
315.128
315.128
441.175
441.175
441.175
315.887
441.175
315.887
730.041
326.325
315.128
315.128
315.128
441.175
315.887
455.098
324.308
315.128
315.887
441.175
455.098
455.098
441.175
455.098
455.098
328.52
441.175
455.098
315.128
315.128
315.887
441.175
441.175
455.098
455.098
315.887
441.175
455.098
455.098
315.887
441.175
831.984
315.128
441.175
315.887
455.098
315.128
441.175
455.098
315.887
441.175
315.128
455.098
441.175
315.128
315.887
455.098
441.175
441.175
315.128
441.175
455.098
315.128
455.098
315.887
315.887
878.39
315.887
315.128
315.128
315.128
311.815
455.098
315.128
315.887
813.922
315.887
441.175
455.098
455.098
441.175
455.098
315.128
455.098
315.887
315.887
315.887
315.128
315.887
315.128
315.128
315.887
455.098
315.887
315.887
455.098
315.128
315.128
315.887
303.164
455.098
315.128
315.128
455.098
315.887
455.098
455.098
315.128
441.175
441.175
315.128
441.175
315.887
310.575
315.887
315.128
315.128
315.128
315.128
315.128
305.131
441.175
455.098
862.65
315.887
323.411
441.175
315.128
315.128
455.098
315.128
315.887
315.128
315.128
315.128
441.175
315.887
315.128
441.175
315.128
455.098
315.887
315.128
315.887
441.175
455.098
315.887
441.175
441.175
315.128
315.128
315.128
441.175
315.887
302.088
829.16
441.175
315.128
315.128
315.887
455.098
455.098
455.098
315.128
315.887
315.128
455.098
441.175
315.128
323.715
315.887
315.887
315.128
441.175
315.887
455.098
315.887
441.175
441.175
315.887
315.887
441.175
730.041
315.887
455.098
830.568
768.447
805.299
441.175
441.175
455.098
315.128
315.128
455.098
315.887
455.098
315.887
315.128
455.098
315.128
315.128
441.175
315.128
720.411
729.954
441.175
441.175
315.887
315.887
315.128
455.098
315.128
455.098
315.128
315.128
441.175
455.098
441.175
320.019
309.232
315.887
315.128
455.098
315.128
441.175
315.128
441.175
315.128
441.175
441.175
315.887
315.128
455.098
315.128
441.175
315.887
441.175
455.098
455.098
455.098
315.128
441.175
455.098
731.921
455.098
455.098
315.128
441.175
315.128
315.128
315.887
315.128
315.887
315.128
441.175
455.098
744.877
315.887
315.887
441.175
315.128
315.128
315.128
315.128
441.175
441.175
315.887
315.887
315.128
315.128
805.127
301.779
455.098
441.175
441.175
315.128
441.175
303.154
455.098
315.128
441.175
455.098
315.887
441.175
315.887
315.128
315.887
838.794
455.098
328.52
315.128
315.128
315.128
315.887
455.098
315.887
315.128
441.175
315.128
315.887
315.128
455.098
315.887
315.887
455.098
441.175
731.921
327.639
315.128
441.175
441.175
875.062
455.098
315.128
315.128
441.175
455.098
315.128
455.098
441.175
441.175
315.128
315.887
455.098
815.585
455.098
315.128
455.098
455.098
315.887
315.887
315.887
315.887
441.175
455.098
455.098
455.098
315.887
315.128
315.887
315.128
441.175
441.175
441.175
441.175
455.098
441.175
441.175
313.341
315.887
315.128
315.128
455.098
455.098
441.175
441.175
441.175
315.128
745.88
315.887
315.887
315.128
455.098
455.098
315.128
315.887
315.128
455.098
315.887
441.175
441.175
315.128
315.128
315.128
315.128
315.887
315.887
315.887
315.887
315.128
315.128
441.175
315.128
441.175
315.887
441.175
441.175
441.175
315.128
315.128
848.764
315.887
441.175
455.098
441.175
455.098
315.128
441.175
775.877
315.128
302.756
455.098
441.175
441.175
776.69
315.128
315.128
315.128
455.098
303.107
321.205
315.128
843.617
455.098
315.128
315.887
315.887
315.887
315.128
315.887
455.098
315.128
301.847
315.887
441.175
441.175
441.175
441.175
441.175
315.128
455.098
841.028
441.175
441.175
441.175
315.887
315.128
315.128
441.175
315.128
315.128
315.128
315.128
315.887
441.175
441.175
455.098
315.128
441.175
315.128
455.098
315.128
762.479
760.435
441.175
315.887
455.098
455.098
315.887
455.098
314.97
441.175
315.128
315.887
315.887
842.145
315.887
441.175
455.098
315.128
441.175
315.128
315.128
315.887
315.887
315.887
441.175
315.887
814.487
455.098
305.876
455.098
455.098
780.057
315.128
441.175
441.175
441.175
315.128
455.098
441.175
315.887
315.128
315.128
455.098
441.175
301.902
441.175
441.175
315.887
455.098
441.175
455.098
441.175
455.098
441.175
441.175
312.517
315.887
441.175
455.098
315.128
315.128
455.098
441.175
315.887
322.341
315.887
441.175
441.175
315.128
455.098
441.175
455.098
308.062
315.128
315.128
315.887
315.887
315.887
315.887
315.128
441.175
455.098
768.447
765.987
455.098
441.175
315.887
441.175
315.887
324.004
441.175
315.128
315.887
455.098
455.098
309.232
441.175
441.175
315.887
441.175
441.175
441.175
441.175
455.098
441.175
455.098
441.175
441.175
315.887
455.098
455.098
441.175
455.098
315.887
321.508
315.887
315.887
441.175
455.098
315.128
441.175
441.175
455.098
315.128
315.128
441.175
455.098
315.887
315.128
455.098
441.175
455.098
455.098
441.175
315.128
441.175
455.098
315.887
315.887
441.175
455.098
315.128
315.128
441.175
455.098
441.175
441.175
843.617
315.128
315.887
315.887
315.887
315.887
441.175
315.128
315.128
315.887
441.175
455.098
441.175
455.098