<?xml version="1.0"?>
<VTKFile type="PolyData" version="0.1" byte_order="LittleEndian">
  <PolyData>
    <Piece NumberOfPoints="50000" NumberOfVerts="50000" NumberOfLines="0" NumberOfStrips="0" NumberOfPolys="0">
      <Points>
        <DataArray type="Float32" NumberOfComponents="3" format="ascii">
0.0636952 0.00217224 0
-0.0587556 0.00119179 0
0.0613292 0.000384599 0
0.0641812 0.00047898 0
-0.050748 0.00173745 0
-0.0424161 0.00110214 0
0.0211656 -0.00317929 0
-0.0529381 0.000722163 0
0.0188982 -0.00232899 0
-0.00322825 0.00212863 0
0.0479363 -0.00117167 0
0.0615531 0.00206389 0
-0.0338942 0.00186437 0
-0.0234007 -0.00297066 0
-0.064113 0.00109635 0
0.0493023 0.00268929 0
-0.00817194 0.00044519 0
0.0635092 0.00106254 0
0.0244129 0.00100613 0
-0.0587113 0.00132869 0
-0.0617302 0.00159824 0
0.0548281 0.00183887 0
-0.0606706 0.00114827 0
0.0622199 0.000812707 0
0.0394904 -0.0011891 0
0.0458532 0.00279668 0
-0.0597598 -0.000412438 0
0.0638662 0.000285696 0
-0.0422798 0.00440163 0
-0.0635524 0.00215313 0
-0.0473013 0.00264745 0
-0.0435211 -0.00178248 0
0.0633497 0.000948254 0
0.0634743 0.000637423 0
0.0125804 0.00157751 0
0.0646613 0.000555325 0
0.0200072 0.00101581 0
-0.0632225 0.0011229 0
-0.0584453 -5.9126e-05 0
-0.0651605 0.000361487 0
0.0461991 0.00283323 0
0.049036 0.00174843 0
-0.0603742 0.000356955 0
0.0629532 0.000933211 0
0.0648343 0.00101313 0
-0.0619756 0.0021012 0
0.0621278 0.00161049 0
0.0317328 -0.00152949 0
0.0611327 0.000864727 0
0.0626312 0.000844819 0
0.0261146 0.00410397 0
-0.0609497 0.000566823 0
-0.0417109 0.00223964 0
0.061906 0.00128398 0
-0.0598527 0.00112794 0
-0.0636544 0.00115495 0
0.06368 0.000624777 0
0.0257378 0.00258754 0
0.0473086 0.001974 0
0.0656624 5.88186e-05 0
0.0533078 0.00154252 0
0.0644294 0.00125605 0
0.0144487 -0.0041309 0
0.0655059 0.000539381 0
-0.0198209 0.00339706 0
-0.0597712 0.000969312 0
0.0623122 0.000672191 0
0.0637733 0.000705261 0
0.0658517 0.00144114 0
0.0458008 0.000951433 0
-0.0602274 0.00127414 0
0.0624276 0.00142056 0
0.0347384 0.00104848 0
0.034707 0.00187238 0
0.0298188 0.00159602 0
-0.0614281 0.000346964 0
0.0538301 0.00273508 0
-0.0579491 0.00144672 0
0.0477299 0.00186617 0
-0.063484 0.00102097 0
-0.0307971 -0.00434634 0
-0.062334 0.00144561 0
0.0591195 0.00164205 0
-0.0607425 0.000851467 0
0.0655832 9.34939e-05 0
-0.0606036 0.0012883 0
0.065613 0.000103024 0
-0.0265583 -0.000525447 0
-0.0255504 0.00431638 0
-0.0615146 -0.000379316 0
0.0619773 0.00189353 0
-0.0601103 0.00065132 0
0.0618433 0.000536959 0
-0.0405047 0.00380198 0
-0.00528573 -0.00249861 0
-0.0536677 0.00159647 0
0.0621712 0.00221902 0
-0.0617252 0.00127455 0
-0.0652055 0.0018984 0
-0.0643423 0.000615347 0
-0.0535758 -0.000388643 0
-0.0603827 -0.000140741 0
0.0658794 0.000731592 0
-0.0250402 -0.002358 0
0.0663422 0.000748337 0
0.0538804 0.00276216 0
0.0407325 0.00191735 0
0.00371115 0.00196947 0
0.0607397 0.00151631 0
-0.0612347 1.4427e-05 0
-0.0451735 0.00380953 0
-0.0618729 0.00125657 0
-0.0523002 0.00241106 0
36.1211 52.2508 0
0.0416132 0.00195932 0
-0.0608614 0.00132591 0
-0.0631865 0.00144639 0
0.90949 1.24391 0
-0.0615932 0.00100617 0
-0.00218137 -0.000469483 0
0.0638926 0.000624062 0
-0.0595119 0.000141267 0
0.043285 0.000310215 0
-0.0563076 0.00192632 0
0.0625326 0.000723219 0
0.0608786 0.000687464 0
0.0200759 0.00444046 0
0.0639289 0.00150801 0
-0.0542944 -0.00028285 0
0.0484034 0.000676368 0
0.0646515 0.000350391 0
0.0640299 0.000768748 0
-0.0647398 0.000885 0
-0.0538515 0.00140206 0
0.065798 0.00056874 0
0.0625844 0.000685798 0
0.0601076 0.000391557 0
-0.00893742 0.00127614 0
0.0499653 -0.00135568 0
0.0487429 -0.00101389 0
0.0499459 -0.00139365 0
0.0592041 0.00230183 0
0.0646211 0.000321214 0
-0.013748 -0.00133157 0
-0.0629348 0.001796 0
0.0424061 -0.00261707 0
-0.0395018 0.00385804 0
-0.061994 0.00107157 0
-0.0433077 -0.00223288 0
-0.0622425 0.00132962 0
0.0484803 0.00195587 0
0.0621963 0.00120315 0
-0.0180831 -0.00100943 0
0.0503076 -0.00076988 0
0.0499725 0.00210803 0
0.0618217 0.00146862 0
0.0420801 -0.00067552 0
-0.0611111 0.00118542 0
-0.0256159 -0.000125811 0
0.0644753 0.000788637 0
0.0430923 0.000564387 0
-0.0555344 0.000274874 0
-0.0600353 0.00114454 0
-0.062475 0.00115079 0
-0.0153737 0.00232346 0
0.0494677 -0.00015573 0
0.055886 -4.25582e-05 0
0.0564585 0.00138648 0
0.0480005 0.00210569 0
-0.0249217 0.000878703 0
0.066283 8.53643e-05 0
-0.059799 0.00123941 0
-0.0134421 -0.00011227 0
0.0643402 0.00154103 0
-0.0105619 0.000269226 0
-0.0475824 0.00319799 0
-0.0599677 0.00114114 0
-0.0355745 -0.000909236 0
-0.0609274 0.000377873 0
-0.061263 -0.000294904 0
0.0615096 0.000823995 0
-0.0618656 0.00173916 0
-0.0608901 0.00158681 0
0.0636589 0.00168895 0
0.0618647 0.000691731 0
0.047439 -0.00184177 0
0.0664247 0.00031167 0
0.0655318 0.000903347 0
0.0637963 0.000269516 0
0.00750912 0.00521783 0
0.0648313 0.000273531 0
0.0522732 -0.000592321 0
-0.0401798 -0.00201427 0
0.0580731 0.00181338 0
-0.0561808 0.00175589 0
0.0615727 0.00111609 0
-0.049797 0.00258697 0
-0.0533836 0.00159103 0
-0.0600186 0.00136083 0
0.0624804 0.00163082 0
-0.0394353 0.00369164 0
0.0652754 0.00125017 0
0.0566916 -2.63979e-05 0
-0.0118606 -0.000293124 0
0.0663474 6.9438e-05 0
-0.0595479 -0.000525621 0
0.00876079 0.00779302 0
0.026622 -0.000217867 0
-0.0532383 0.00242828 0
-0.0370609 -0.000777305 0
0.0609385 0.000932214 0
-0.0253795 -0.00240993 0
0.0571743 0.00025331 0
-0.0514249 0.00247774 0
-0.034662 -0.00163727 0
-0.0624062 0.00168725 0
-0.0615678 0.00193841 0
0.0631603 0.000798501 0
-0.0628909 0.000545262 0
-0.00664095 0.00399169 0
-0.0480952 0.00258682 0
-0.062983 0.00131033 0
-0.0580014 -0.000212514 0
0.0658012 0.000381667 0
0.0232209 0.00455327 0
-0.06003 0.00121943 0
0.0659118 0.00100355 0
0.0636209 0.000713956 0
-0.0528613 0.00228223 0
-0.0630984 0.000634598 0
-0.0621312 0.000122419 0
0.062069 0.00152 0
0.0319369 0.0044068 0
-0.00876932 0.00308123 0
-0.0640692 0.00143313 0
-0.0548161 0.00168062 0
0.0481494 -0.00188225 0
-0.0479354 7.17384e-05 0
-0.0610583 0.00127366 0
0.038586 0.00035955 0
0.0647596 0.000822157 0
-0.0563863 -0.00034728 0
-0.0619571 0.00126694 0
-0.0348467 -0.00137029 0
0.0318409 0.00185926 0
0.0564233 0.00146082 0
-0.0580358 0.00185664 0
0.0636399 0.000712125 0
0.0650878 0.00123597 0
0.0373651 0.00273581 0
0.0391062 0.00148163 0
-0.0579636 0.0015481 0
0.0612229 0.000366284 0
-0.0267096 -0.00065668 0
-0.055922 0.00202855 0
0.0614781 0.000786665 0
-0.0541903 0.00199835 0
0.05394 0.00219495 0
0.0235536 0.00437225 0
0.0343519 0.000883265 0
0.0651824 0.000976485 0
-0.0579448 0.00152127 0
0.0123956 -0.000461267 0
0.0065824 -0.00133097 0
-0.041011 0.00130278 0
-0.0612694 0.000899382 0
-0.0600888 0.00120715 0
-0.059983 0.000507086 0
0.0630831 0.000680879 0
0.0623807 0.000702439 0
0.0643184 0.000683284 0
-0.0619176 0.000271591 0
0.0413075 0.00128436 0
0.00373994 0.00251784 0
-0.064385 0.00152593 0
-0.0625026 0.00110596 0
0.0612376 0.000773967 0
-0.0597502 0.00122146 0
0.0603262 0.00182506 0
-0.0608487 0.000506731 0
-0.0585694 0.000730449 0
-0.0262369 -0.00271157 0
-0.0617149 0.00112565 0
0.0596495 0.00048258 0
-0.0519202 0.00242943 0
-0.0585979 0.000265437 0
-0.0226133 0.00383113 0
-0.0616598 0.00124168 0
-0.062408 0.00133679 0
0.0538788 0.000338891 0
-0.0213022 0.0018286 0
0.0629603 0.000690371 0
0.0643031 0.000386949 0
0.0407653 0.00294575 0
0.0649925 0.00134169 0
0.0622551 0.00182096 0
0.064684 0.00148011 0
-0.041327 0.00434917 0
-0.0577902 0.0010605 0
-0.0639759 0.000901335 0
0.0664839 0.000972023 0
-0.00789784 0.00192665 0
0.0626748 0.000562079 0
0.0613916 0.00136089 0
0.0644574 0.000716233 0
0.011518 0.00266372 0
-0.0314374 0.00460189 0
0.05409 0.00164396 0
-0.00662485 0.000846105 0
-0.02954 0.00221945 0
-0.0499732 0.00255489 0
0.0631845 0.00190375 0
-0.0440553 0.0030155 0
0.0580042 -1.32944e-05 0
0.0479419 8.14222e-05 0
-0.0640411 0.00171649 0
0.0507492 -0.00145089 0
0.065978 3.43713e-05 0
0.0589379 0.00035334 0
0.063345 0.00200978 0
-0.0624578 0.00157729 0
-0.0129165 0.0030942 0
0.0640864 0.00114496 0
0.0639948 0.000688176 0
0.0293949 0.0045829 0
-0.0597791 0.000661905 0
-0.058237 0.00154288 0
0.0657725 0.000910036 0
-0.0593131 0.000298449 0
0.0638442 0.00123907 0
0.0641033 0.000459938 0
0.0305503 -0.00276524 0
0.0610753 0.00136384 0
-0.0612637 0.00126252 0
-0.0519682 0.000677878 0
-0.034639 0.000388048 0
0.00568496 -0.000370096 0
0.00807641 -0.00356612 0
-0.0561293 0.00128196 0
0.0284285 -0.00315335 0
-0.00560832 0.00681558 0
-0.0634398 0.00168403 0
-0.0446496 0.0028773 0
-0.0617935 0.00143779 0
-0.0247392 -0.0012898 0
0.0642872 0.00192712 0
-0.0432536 0.00313364 0
-0.0628021 0.000722768 0
-6.02585 24.9287 0
0.0640113 3.56504e-05 0
0.0636497 0.000665266 0
-0.0503618 0.0029551 0
0.0621878 0.00131104 0
0.0587949 0.000670354 0
-61.3102 -109.644 0
0.0197561 0.00303833 0
-0.0620739 0.0013172 0
-0.0509542 0.000394908 0
0.0630006 0.00137793 0
0.483663 -0.993705 0
0.059526 0.00158887 0
-0.0608749 -0.000217725 0
-0.0381179 0.000819791 0
-0.0618262 0.000214482 0
-0.0628666 0.00178683 0
0.0626376 0.000671666 0
-0.0633949 0.000541097 0
-0.0548251 0.0021879 0
0.0488725 0.00274554 0
-0.0598164 0.000767414 0
-0.0494304 0.00295848 0
-0.055155 0.00204049 0
0.0631112 0.00147712 0
0.0569862 -0.000258234 0
-0.03616 0.00370186 0
0.0651801 0.000517862 0
-0.0621962 -0.000148506 0
-0.0570987 0.000216054 0
-0.0627876 0.000938351 0
0.006087 -0.00382129 0
-0.0605412 -0.000103101 0
0.062785 0.00151448 0
-0.0612647 0.00133335 0
-0.0612659 0.00105177 0
-0.0142623 0.00310319 0
0.0407401 0.00291327 0
-0.0189691 0.00631219 0
0.0137987 0.00394689 0
-0.0620791 0.0013554 0
-0.0104209 0.00135303 0
-0.0623185 0.000588592 0
-0.0625072 0.00160005 0
0.0611512 -5.31028e-05 0
0.053421 0.00226458 0
-0.0580951 0.00176324 0
0.0571673 0.00161748 0
0.0562723 0.00103285 0
-0.0595005 0.00123666 0
-0.0321836 -0.000300567 0
0.0443541 -0.00182862 0
-0.0598536 0.000868466 0
0.0538566 -0.000552929 0
0.0251517 7.23884e-05 0
-0.0609846 0.000609518 0
0.0585703 0.000732504 0
0.0615872 0.000469718 0
0.062916 0.000121193 0
[...]
      <PointData Scalars="T">
        <DataArray type="Float32" Name="T" format="ascii" NumberOfComponents="1">
313.33
315.551
301.079
300.707
326.765
317.49
317.465
319.587
317.465
338.074
317.465
313.33
330.015
333.824
317.609
313.33
322.92
300.535
300.406
315.581
320.282
301.713
316.18
300.628
317.465
313.33
333.824
301.196
338.074
338.074
338.074
333.824
300.414
300.49
300.954
300.558
300.408
316.711
333.824
322.967
313.33
301.695
323.202
300.412
300.408
338.074
301.216
317.465
300.417
300.539
313.33
321.47
338.074
300.627
316.711
316.058
300.499
313.33
313.33
302.172
300.827
300.627
317.465
300.57
338.074
319.687
300.461
300.453
300.786
300.416
315.444
300.829
300.613
301.74
301.076
323.459
313.33
317.134
301.732
318.493
333.824
317.134
301.455
317.66
301.992
315.449
301.963
333.824
338.074
333.824
301.759
320.006
300.57
338.074
333.824
320.282
313.33
315.444
329.655
320.694
333.824
333.824
300.447
333.824
300.447
313.33
313.33
313.33
300.746
329.191
338.074
315.434
338.074
313.33
313.33
315.581
317.134
313.33
318.602
333.824
300.499
329.715
301.063
338.074
300.449
300.458
313.33
300.73
333.824
300.461
301.102
300.458
317.692
316.644
300.553
300.458
301.043
315.444
317.465
317.465
317.465
313.33
301.065
333.824
328.514
317.465
338.074
317.719
333.824
315.581
313.33
300.504
333.824
317.465
313.33
300.747
317.465
315.686
333.824
300.494
300.553
323.948
316.18
316.058
338.074
317.465
317.465
300.784
313.33
317.946
302.023
315.427
333.824
300.827
324.331
338.074
316.18
333.824
322.814
333.824
300.65
326.765
319.79
301.598
300.455
317.465
301.063
300.41
301.435
313.33
301.296
317.465
333.824
301.696
327.395
300.488
338.074
320.282
316.337
301.37
338.074
300.627
317.465
333.824
302.121
333.824
313.33
317.465
338.074
333.824
300.412
333.824
301.601
338.074
333.824
325.382
338.074
300.528
321.692
338.074
338.074
315.519
333.824
301.079
313.33
315.442
300.406
300.451
338.074
320.352
329.521
300.746
313.33
338.074
316.898
325.382
317.465
329.943
315.444
301.102
300.65
333.824
315.439
333.824
301.726
300.747
329.889
300.451
300.583
313.33
300.721
318.573
301.111
333.824
338.074
300.494
338.074
313.33
313.33
300.412
300.417
318.333
317.465
317.465
315.478
318.432
315.473
321.958
300.458
300.453
300.458
323.948
300.627
313.33
318.333
317.49
300.47
315.43
301.702
321.958
319.624
333.824
316.711
300.672
338.074
324.331
338.074
315.43
315.699
301.077
329.081
300.455
301.079
313.33
300.67
301.702
300.721
338.074
317.666
319.058
300.417
338.074
300.553
300.724
300.451
313.33
338.074
301.455
317.614
338.074
338.074
301.767
338.074
317.465
302.023
326.206
317.465
302.301
301.102
313.33
319.447
338.074
300.488
300.458
313.33
319.833
318.573
300.41
323.606
300.583
300.755
317.465
300.724
315.439
319.749
322.809
317.465
317.465
315.449
317.465
338.074
325.382
338.074
316.898
333.824
313.33
338.074
319.587
338.074
302.301
300.467
338.074
300.624
300.461
333.824
313.33
315.519
322.865
300.756
317.465
301.009
333.824
318.166
327.155
328.283
300.461
321.692
338.074
313.33
319.363
338.074
338.074
300.728
317.465
338.074
300.594
333.824
327.155
319.51
317.465
333.824
300.746
315.699
317.87
338.074
313.33
338.074
313.33
316.124
316.124
321.133
320.831
317.465
313.33
327.721
301.216
300.585
315.427
333.824
317.465
318.076
317.465
302.062
320.892
300.447
300.733
301.929
300.52
300.539
313.33
315.686
313.33
333.824
313.33
315.686
333.824
338.074
317.465
316.337
300.461
338.074
313.33
315.444
300.488
300.447
313.33
301.929
315.439
316.18
300.499
338.074
313.33
316.058
300.786
319.447
327.978
317.304
318.573
300.635
300.508
338.074
301.111
318.166
320.352
333.824
318.322
333.824
313.33
317.465
322.687
300.555
324.331
321.653
301.065
302.334
322.365
316.689
317.66
333.824
300.416
333.824
300.41
338.074
333.824
300.447
301.695
333.824
329.652
338.074
338.074
313.33
318.166
302.062
300.461
300.765
338.074
320.282
316.124
300.574
313.33
318.85
322.687
329.598
316.058
300.577
301.009
300.449
300.411
338.074
313.33
313.33
300.408
315.473
313.33
317.465
319.6
300.558
315.442
316.638
338.074
333.824
320.352
333.824
333.824
329.191
317.465
317.465
317.465
313.33
301.077
313.33
313.33
328.285
313.33
315.942
300.733
313.33
338.074
300.768
317.991
318.446
338.074
319.185
313.33
317.465
301.545
300.482
300.553
317.465
329.889
301.631
300.728
319.185
300.765
317.392
315.449
333.824
301.196
300.52
318.218
338.074
327.155
321.133
333.824
313.33
301.767
300.486
301.703
333.824
316.689
300.827
316.898
300.414
313.33
323.62
315.444
317.465
327.721
300.635
313.33
325.36
301.545
333.824
300.49
319.687
338.074
300.577
317.465
329.652
322.92
317.946
315.551
338.074
301.707
301.196
300.482
300.415
301.759
333.824
318.85
319.624
333.824
315.457
300.756
317.465
338.074
301.696
321.288
300.406
300.768
300.412
316.18
313.33
333.824
319.228
313.33
302.346
333.824
313.33
315.457
317.465
300.755
301.137
300.447
333.824
323.202
318.573
319.058
301.702
324.331
317.465
321.133
333.824
313.33
300.47
322.967
322.687
329.591
338.074
300.529
301.075
338.074
319.662
333.824
313.33
317.465
315.43
338.074
300.616
301.09
313.33
301.702
316.332
333.824
323.62
333.824
333.824
300.72
338.074
313.33
300.609
333.824
338.074
300.47
301.929
333.824
316.337
317.465
333.824
333.824
315.473
300.546
333.824
317.186
313.33
338.074
316.083
317.465
313.33
315.427
313.33
301.102
317.666
301.767
300.455
316.124
338.074
301.992
300.447
300.47
313.33
300.835
319.6
320.006
338.074
318.818
301.676
315.478
329.831
300.416
300.695
317.134
316.711
318.818
300.461
300.903
313.33
313.33
319.79
300.449
300.978
318.158
316.689
300.627
300.467
313.33
313.33
300.555
326.461
301.612
300.627
300.851
315.434
313.33
327.721
317.465
300.652
317.465
300.827
317.465
338.074
300.488
318.619
300.83
315.43
338.074
338.074
302.172
333.824
301.545
315.439
300.458
301.508
333.824
317.465
318.432
321.647
319.363
317.186
338.074
318.573
300.455
300.851
317.465
300.458
302.172
326.011
313.33
315.43
319.41
300.594
301.09
315.551
300.414
316.689
313.33
318.818
329.081
338.074
333.824
321.647
300.414
338.074
313.33
338.074
333.824
318.388
321.823
333.824
300.528
313.33
300.755
338.074
333.824
323.031
317.718
333.824
338.074
322.814
313.33
315.427
333.824
302.243
300.672
300.453
316.332
317.991
323.691
300.786
321.653
300.508
316.124
333.824
321.692
313.33
300.458
313.33
300.488
300.529
329.618
319.79
300.616
338.074
313.33
317.609
300.765
316.18
328.285
300.62
315.457
300.496
318.333
316.664
302.334
300.577
321.823
313.33
317.465
300.535
313.33
338.074
333.824
319.6
313.33
317.715
300.577
313.33
300.594
317.465
319.749
316.689
300.491
320.831
338.074
317.465
300.458
300.652
300.473
318.388
333.824
313.33
317.499
300.491
300.784
315.43
338.074
300.633
317.692
317.465
300.453
315.457
315.449
300.733
300.414
338.074
333.824
333.824
313.33
300.491
317.524
338.074
316.058
318.166
975.424
300.553
338.074
300.499
317.718
300.529
300.458
318.076
300.49
317.186
300.72
300.467
327.721
333.824
300.634
301.065
313.33
301.641
301.715
313.33
315.449
301.696
301.105
319.499
317.465
301.649
316.898
300.574
317.465
301.713
318.333
317.134
333.824
317.465
333.824
300.473
333.824
316.18
338.074
313.33
325.907
319.363
333.824
317.465
319.447
316.689
317.465
300.527
333.824
333.824
302.103
338.074
300.851
317.465
321.133
301.732
333.824
300.487
317.465
313.33
302.172
313.33
313.33
338.074
300.504
301.102
300.482
338.074
300.461
333.824
338.074
323.62
301.09
300.954
315.686
333.824
338.074
317.465
316.644
338.074
300.65
300.453
313.33
300.695
315.457
317.186
301.435
338.074
301.732
338.074
329.831
300.488
323.606
300.851
321.314
322.809
338.074
317.134
329.591
317.392
333.824
327.721
338.074
301.767
318.619
302.346
317.465
317.465
300.811
300.827
338.074
300.494
315.478
313.33
315.439
300.756
300.485
323.354
313.33
338.074
300.594
301.455
317.465
321.628
300.473
329.655
300.417
333.824
326.683
313.33
333.824
315.699
318.341
333.824
317.465
313.33
313.33
313.33
333.824
317.465
320.694
317.465
300.414
313.33
313.33
300.627
317.465
300.467
333.824
313.33
300.624
321.647
329.356
301.043
316.638
300.411
338.074
329.943
315.478
317.524
333.824
315.43
300.555
333.824
313.33
316.711
302.121
338.074
313.33
338.074
338.074
300.83
301.693
323.031
317.465
313.33
300.539
300.412
333.824
338.074
319.587
319.447
317.465
318.573
300.417
318.818
338.074
300.578
300.57
316.734
313.33
301.992
300.539
317.465
315.581
300.628
301.37
338.074
338.074
338.074
323.354
338.074
317.465
315.43
301.196
333.824
300.488
301.296
313.33
315.434
333.824
333.824
318.333
317.465
313.33
333.824
300.563
300.613
333.824
333.824
300.546
315.519
300.508
317.465
300.954
333.824
338.074
338.074
316.664
301.137
318.936
300.635
317.609
328.283
300.453
301.009
313.33
317.465
300.724
319.587
318.602
333.824
315.442
300.453
300.583
300.903
313.33
313.33
301.577
329.191
316.638
318.818
325.653
320.006
315.427
315.473
300.414
317.465
317.465
300.447
300.529
315.43
317.465
316.337
300.412
322.365
318.573
313.33
316.332
318.158
300.461
319.421
317.465
301.043
317.465
300.553
313.33
300.813
301.065
313.33
322.045
300.585
317.719
301.137
313.33
300.46
321.288
301.601
321.647
313.33
313.33
313.33
313.33
338.074
317.465
329.591
313.33
300.615
317.465
318.936
318.936
317.692
317.465
317.465
333.824
301.713
316.083
300.634
300.461
333.824
318.573
319.447
317.465
301.076
316.124
300.458
338.074
300.609
316.644
315.434
319.058
338.074
317.465
301.09
322.045
318.818
338.074
338.074
302.243
325.907
313.33
317.991
313.33
300.634
338.074
315.686
301.076
338.074
300.458
317.465
317.465
338.074
300.412
317.465
333.824
338.074
317.465
316.644
300.453
338.074
315.449
300.455
333.824
333.824
300.574
300.574
300.784
300.643
313.33
320.892
300.491
313.33
338.074
338.074
317.465
315.551
313.33
300.423
317.614
315.686
301.719
319.228
318.076
300.613
317.465
319.363
317.49
300.49
316.337
318.619
321.999
320.694
338.074
301.043
317.465
338.074
316.124
317.465
333.824
300.755
313.33
313.33
338.074
317.304
301.043
318.076
313.33
316.689
313.33
301.111
317.49
300.52
300.546
333.824
315.43
333.824
323.691
315.434
320.282
315.699
316.664
313.33
300.528
301.075
316.689
317.465
338.074
315.551
300.47
315.427
315.444
300.695
315.473
321.823
300.978
333.824
322.045
313.33
316.337
301.649
300.486
300.529
317.465
320.282
300.633
300.577
315.457
315.449
313.33
338.074
338.074
300.41
300.482
300.447
333.824
300.458
338.074
300.488
301.09
318.296
315.427
315.43
300.616
300.528
338.074
338.074
316.644
333.824
300.485
333.824
317.465
333.824
333.824
300.65
313.33
301.09
333.824
313.33
317.465
313.33
317.614
300.49
319.058
319.662
338.074
315.686
319.185
322.92
323.62
301.693
300.635
333.824
316.734
338.074
317.465
322.328
338.074
315.444
333.824
333.824
317.465
301.435
300.835
315.434
301.702
313.33
300.455
322.865
302.239
300.488
313.33
300.412
301.697
327.395
317.946
319.576
338.074
317.49
300.467
333.824
333.824
313.33
316.734
333.824
338.074
317.614
316.711
315.444
319.662
302.271
333.824
322.687
329.889
333.824
315.581
317.465
329.191
338.074
317.465
300.57
302.334
333.824
333.824
338.074
313.33
315.427
321.288
300.488
338.074
315.444
328.698
300.827
338.074
313.33
313.33
317.465
321.958
302.119
300.496
333.824
319.687
300.978
313.33
333.824
327.721
321.724
300.558
317.715
320.507
338.074
300.954
301.693
317.465
313.33
333.824
338.074
315.427
317.465
313.33
322.328
301.455
300.903
319.587
333.824
322.045
301.703
313.33
301.306
316.18
301.767
319.51
313.33
338.074
315.699
317.666
300.621
300.458
317.465
300.672
321.653
301.102
317.465
318.166
315.551
313.33
300.786
300.539
338.074
317.465
315.427
300.539
300.756
317.465
300.423
319.6
315.457
319.624
301.137
301.063
317.465
300.447
338.074
301.713
315.444
300.485
300.628
313.33
333.824
300.414
315.686
301.707
313.33
301.111
319.6
317.465
302.423
302.239
300.553
300.808
318.446
313.33
300.755
338.074
324.825
319.363
317.392
322.328
338.074
318.166
338.074
300.578
300.455
333.824
313.33
326.206
317.609
316.18
317.465
333.824
333.824
300.634
300.755
301.137
313.33
313.33
317.87
300.583
300.72
301.077
301.137
315.457
300.41
318.602
333.824
333.824
317.465
333.824
338.074
326.206
338.074
338.074
338.074
318.076
338.074
300.609
300.695
300.553
315.942
301.075
316.058
300.546
313.33
316.734
300.613
300.628
313.33
300.765
317.465
317.392
317.465
300.416
338.074
313.33
317.718
301.732
338.074
301.435
300.494
326.461
338.074
333.824
338.074
329.891
319.447
317.465
317.465
317.465
333.824
313.33
338.074
300.453
321.653
313.33
315.442
338.074
333.824
315.478
300.628
302.103
322.045
317.465
300.83
323.459
338.074
300.615
300.73
316.513
300.786
300.721
317.465
300.47
317.465
333.824
338.074
333.824
333.824
313.33
317.465
313.33
300.535
300.578
338.074
319.385
319.587
300.529
300.416
300.449
302.023
316.734
317.465
301.631
300.635
301.137
300.574
313.33
319.447
316.513
338.074
301.719
315.942
338.074
300.45
300.417
300.574
300.406
318.388
301.715
316.513
300.73
313.33
338.074
317.465
333.824
333.824
333.824
300.453
333.824
333.824
317.718
333.824
320.006
315.444
333.824
321.999
317.614
301.992
338.074
318.341
313.33
300.867
317.465
300.455
313.33
315.551
338.074
313.33
333.824
333.824
313.33
316.058
323.036
300.488
301.696
300.473
330.014
315.884
317.465
329.591
338.074
300.643
320.694
300.406
300.46
301.075
300.455
338.074
316.337
338.074
300.672
315.942
338.074
338.074
318.218
322.967
318.818
313.33
333.824
338.074
315.551
301.696
318.573
300.499
321.724
317.946
313.33
315.442
324.331
300.482
300.451
320.507
319.499
318.158
300.574
317.614
315.442
317.692
333.824
321.314
333.824
333.824
300.808
300.672
333.824
338.074
317.465
300.62
302.062
333.824
300.733
317.465
300.756
300.813
321.724
333.824
338.074
315.686
300.486
317.186
313.33
316.332
333.824
333.824
302.315
300.406
322.865
326.765
300.467
317.524
300.765
317.465
313.33
301.102
317.465
313.33
316.711
323.727
321.47
320.831
301.079
300.47
322.687
300.628
326.011
315.478
338.074
333.824
317.499
300.634
300.52
315.551
333.824
300.504
313.33
315.519
302.271
315.581
300.45
317.465
300.451
338.074
313.33
317.465
300.529
300.797
320.694
300.411
333.824
333.824
300.546
300.45
321.288
317.49
313.33
300.578
317.465
323.691
333.824
315.43
300.583
300.633
333.824
301.707
300.733
319.228
317.465
313.33
338.074
322.865
319.651
316.734
338.074
317.87
338.074
338.074
300.583
333.824
300.411
323.354
321.958
300.903
317.666
338.074
316.644
333.824
317.465
318.573
333.824
300.486
338.074
319.317
315.434
313.33
300.453
300.635
300.509
333.824
329.784
315.43
319.687
316.711
338.074
333.824
315.43
316.332
317.465
300.867
313.33
300.488
300.414
333.824
319.41
301.767
313.33
322.365
333.824
315.551
317.465
317.87
338.074
338.074
300.616
316.644
302.121
313.33
300.412
317.465
315.439
301.598
320.831
338.074
329.359
313.33
338.074
313.33
300.496
300.488
300.528
338.074
333.824
300.414
300.528
300.508
313.33
313.33
300.467
333.824
300.49
302.239
316.513
319.228
315.434
302.062
300.45
302.172
316.332
317.87
330.015
313.33
316.124
301.216
318.85
300.488
317.465
317.465
300.449
338.074
300.786
333.824
300.489
300.494
301.696
338.074
329.943
333.824
316.124
322.139
325.907
300.486
316.689
319.624
301.079
317.465
300.504
315.444
318.388
329.652
333.824
301.719
338.074
319.749
329.542
300.635
338.074
319.51
300.458
315.43
313.33
333.824
300.546
316.18
333.824
313.33
338.074
317.465
320.892
316.638
317.465
313.33
333.824
315.442
338.074
300.458
338.074
333.824
300.458
319.587
300.813
301.137
319.576
313.33
300.578
317.465
317.465
300.496
321.111
317.465
313.33
318.432
313.33
338.074
329.521
324.331
319.447
333.824
300.52
321.111
313.33
301.715
313.33
317.465
313.33
300.594
317.465
300.903
327.978
300.583
313.33
333.824
301.435
317.465
300.627
300.416
333.824
300.539
300.473
333.824
313.33
323.691
333.824
301.09
315.444
338.074
300.52
338.074
300.527
300.489
313.33
300.453
300.553
317.465
317.465
300.494
300.414
315.457
329.493
319.687
300.621
300.417
338.074
302.334
300.499
319.587
301.111
301.577
302.172
300.482
317.465
315.473
300.72
300.467
318.218
301.075
333.824
301.713
300.451
300.784
338.074
333.824
313.33
315.581
338.074
317.465
300.529
317.465
338.074
313.33
300.585
318.493
315.551
317.465
317.465
301.009
333.824
323.459
819.234
300.458
300.797
317.465
319.833
317.134
302.358
300.414
313.33
300.827
317.465
317.991
313.33
333.824
313.33
317.715
317.134
300.527
301.076
318.818
317.392
301.74
333.824
318.446
318.602
318.158
318.573
315.473
333.824
300.755
317.465
319.6
300.627
319.41
313.33
300.811
329.831
300.453
317.465
338.074
317.465
319.058
318.166
318.388
315.457
300.954
313.33
317.465
333.824
302.423
329.542
300.643
300.733
316.18
322.365
315.434
300.412
300.489
301.696
300.539
333.824
300.733
317.304
300.467
338.074
300.451
315.439
323.914
313.33
317.465
333.824
300.574
321.724
300.621
338.074
333.824
333.824
333.824
302.239
338.074
329.673
319.058
333.824
333.824
300.707
338.074
301.123
301.105
313.33
301.111
313.33
317.465
316.337
333.824
318.432
313.33
313.33
315.551
300.672
300.528
300.455
300.672
321.724
338.074
301.695
301.649
317.465
300.458
317.946
300.423
325.907
316.18
318.322
300.811
338.074
300.423
322.92
300.578
316.638
333.824
300.746
316.898
301.719
317.465
301.767
319.385
319.499
300.489
300.851
317.465
302.358
313.33
319.687
313.33
300.539
338.074
300.447
313.33
317.465
321.133
313.33
313.33
321.288
317.87
318.158
300.417
317.465
316.332
338.074
319.576
322.365
300.461
317.465
329.081
333.824
300.453
333.824
327.132
338.074
300.707
313.33
333.824
317.946
333.824
317.465
324.825
333.824
300.583
300.903
301.598
300.721
318.388
329.542
333.824
333.824
313.33
317.465
300.72
300.447
316.664
315.449
324.935
315.457
333.824
315.427
317.186
300.414
300.527
300.578
317.465
333.824
333.824
316.083
329.591
326.765
317.465
318.432
313.33
313.33
300.563
333.824
333.824
300.473
301.649
300.52
321.133
313.33
315.427
316.124
300.458
300.447
300.616
301.09
301.713
313.33
301.696
300.784
317.465
317.465
316.711
300.578
317.991
313.33
338.074
317.991
317.87
300.539
300.458
319.447
313.33
316.898
321.823
315.43
333.824
317.465
321.724
317.614
300.49
300.417
321.133
318.218
329.081
318.296
301.929
301.043
300.643
319.499
300.411
300.412
317.465
319.51
319.587
300.449
300.485
313.33
300.555
300.451
313.33
322.814
300.458
300.411
300.583
329.356
329.618
315.427
316.734
325.653
317.465
319.624
318.602
338.074
338.074
318.322
300.486
300.46
301.94
316.644
300.461
317.465
317.465
302.301
300.797
316.898
315.439
333.824
301.079
317.186
300.672
333.824
317.465
318.166
319.058
338.074
313.33
333.824
333.824
313.33
324.825
300.491
338.074
300.46
301.508
301.759
319.228
300.835
315.442
329.493
317.465
338.074
301.063
317.465
313.33
313.33
313.33
338.074
300.903
318.432
333.824
300.412
333.824
322.045
318.432
317.465
338.074
317.609
338.074
300.453
324.331
315.457
301.508
300.733
317.465
333.824
315.551
300.408
315.551
321.314
313.33
333.824
316.124
333.824
338.074
321.47
338.074
315.43
300.491
300.695
315.439
333.824
317.465
300.578
333.824
338.074
313.33
300.46
313.33
316.638
338.074
302.243
333.824
315.457
322.365
300.416
317.465
317.465
300.485
313.33
300.633
313.33
317.465
338.074
319.687
318.602
317.66
327.679
321.314
301.767
317.499
300.73
300.414
316.644
300.558
313.33
333.824
333.824
300.491
338.074
338.074
313.33
315.434
317.609
338.074
326.461
329.715
324.407
333.824
321.314
338.074
313.33
333.824
333.824
338.074
333.824
313.33
300.488
300.903
313.33
338.074
333.824
317.465
338.074
338.074
319.6
300.458
302.023
338.074
321.653
313.33
317.465
333.824
338.074
329.831
333.824
324.935
317.465
338.074
322.687
313.33
300.609
321.724
333.824
300.57
300.578
315.43
333.824
315.473
338.074
319.385
317.465
313.33
313.33
313.33
301.508
338.074
317.465
301.065
300.624
317.715
333.824
315.43
323.595
313.33
317.465
300.447
300.461
326.461
338.074
325.382
300.578
338.074
300.417
321.999
301.105
338.074
300.784
300.47
315.519
319.421
317.609
301.95
338.074
328.283
333.824
300.616
315.439
317.465
318.341
319.662
313.33
300.49
329.652
315.43
317.465
313.33
313.33
300.485
300.539
315.457
300.746
300.458
315.43
316.689
317.465
300.45
315.478
326.461
317.946
317.465
317.465
315.457