<?xml version="1.0"?>
<VTKFile type="PolyData" version="0.1" byte_order="LittleEndian">
  <PolyData>
    <Piece NumberOfPoints="50000" NumberOfVerts="50000" NumberOfLines="0" NumberOfStrips="0" NumberOfPolys="0">
      <Points>
        <DataArray type="Float32" NumberOfComponents="3" format="ascii">
0.529107 0.0105407 0
-0.503786 0.0033121 0
0.512939 -0.00420795 0
0.535546 -0.0035501 0
-0.43857 0.00780452 0
-0.368612 0.00234174 0
0.176027 -0.0350143 0
-0.452883 -0.000509785 0
0.155163 -0.0274104 0
-0.0364638 0.0113937 0
0.402437 -0.0174068 0
0.510642 0.00953111 0
-0.295588 0.00881311 0
-0.210351 -0.0329976 0
-0.550402 0.00252208 0
0.41501 0.0155484 0
-0.0774727 -0.00339218 0
0.531272 0.00143995 0
0.201124 0.00126063 0
-0.504525 0.00441785 0
-0.528467 0.00683424 0
0.46051 0.00825314 0
-0.521783 0.00288341 0
0.517789 -0.00076565 0
0.329891 -0.0175162 0
0.385986 0.0164733 0
-0.517689 -0.0105301 0
0.531799 -0.00524877 0
-0.370984 0.0306692 0
-0.544553 0.011574 0
-0.410263 0.0155036 0
-0.381688 -0.0224497 0
0.526689 0.000312507 0
0.530355 -0.00212141 0
0.100576 0.00621122 0
0.539212 -0.00291431 0
0.163376 0.00136438 0
-0.539895 0.00290003 0
-0.505735 -0.0074527 0
-0.561977 -0.00381292 0
0.389096 0.0167924 0
0.411171 0.00750908 0
-0.515719 -0.00357012 0
0.523348 0.000189294 0
0.542549 0.00101675 0
-0.53116 0.0111339 0
0.515614 0.00581628 0
0.264384 -0.0204818 0
0.509155 -0.000274014 0
0.521249 -0.000497587 0
0.218558 0.0279658 0
-0.520627 -0.00181255 0
-0.362426 0.012039 0
0.514423 0.00315754 0
-0.512657 0.00283468 0
-0.546564 0.00303357 0
0.529803 -0.00240756 0
0.213801 0.0148413 0
0.396377 0.00941668 0
0.547028 -0.00719929 0
0.446857 0.0057105 0
0.535411 0.0028106 0
0.11776 -0.0432862 0
0.547051 -0.00302194 0
-0.177162 0.0219615 0
-0.511041 0.00154111 0
0.519903 -0.00186871 0
0.534266 -0.00150383 0
0.552693 0.00471612 0
0.382452 0.000689214 0
-0.51723 0.00396957 0
0.519079 0.00431076 0
0.28317 0.000998421 0
0.289871 0.00846911 0
0.247051 0.00627677 0
-0.52462 -0.00364584 0
0.454237 0.0159737 0
-0.49831 0.0053879 0
0.400489 0.00853943 0
-0.545399 0.00183878 0
-0.275686 -0.0451215 0
-0.534221 0.00551007 0
0.490702 0.00613455 0
-0.519198 0.00056389 0
0.546353 -0.00689848 0
-0.520722 0.00408336 0
0.547343 -0.00677057 0
-0.234804 -0.0116664 0
-0.227269 0.0299687 0
-0.524973 -0.00968791 0
0.514346 0.00819294 0
-0.513554 -0.00111055 0
0.517152 -0.00294624 0
-0.354621 0.0254381 0
-0.0541088 -0.0292627 0
-0.462277 0.00662184 0
0.515952 0.0108922 0
-0.529602 0.00399906 0
-0.558602 0.00939228 0
-0.554197 -0.00164742 0
-0.464881 -0.0102752 0
-0.515448 -0.00770709 0
0.551024 -0.00139493 0
-0.224046 -0.0275581 0
0.554926 -0.00121773 0
0.454506 0.0162031 0
0.333863 0.00829634 0
0.026374 0.0099787 0
0.510163 0.00545604 0
-0.522358 -0.00636828 0
-0.394552 0.0255176 0
-0.530095 0.00388231 0
-0.452722 0.013527 0
394.503 570.67 0
0.347869 0.0091999 0
-0.522505 0.00440327 0
-0.541781 0.00553205 0
10.1422 13.8743 0
-0.526156 0.00189291 0
-0.0274396 -0.0118578 0
0.531998 -0.00237661 0
-0.507498 -0.00525057 0
0.35892 -0.00506429 0
-0.4856 0.00941282 0
0.52228 -0.00139392 0
0.507578 -0.00173589 0
0.166712 0.0310093 0
0.536694 0.00532474 0
-0.471057 -0.00936635 0
0.404967 -0.00164928 0
0.539575 -0.00465645 0
0.53531 -0.00102933 0
-0.556468 0.000685033 0
-0.464327 0.00498889 0
0.548103 -0.00286118 0
0.52093 -0.00184319 0
0.50247 -0.00414298 0
-0.0844024 0.0037358 0
0.420277 -0.0190178 0
0.408816 -0.0160468 0
0.420099 -0.0193165 0
0.498601 0.0121831 0
0.538401 -0.00493786 0
-0.125929 -0.0187199 0
-0.539362 0.00852355 0
0.357795 -0.0299628 0
-0.345981 0.0259242 0
-0.532134 0.00230082 0
-0.381149 -0.0264609 0
-0.533777 0.00452156 0
0.406474 0.00926581 0
0.51742 0.00250438 0
-0.162722 -0.0158788 0
0.421531 -0.0139524 0
0.419207 0.0105403 0
0.513 0.00462169 0
0.351408 -0.0131498 0
-0.522995 0.00333179 0
-0.226315 -0.0082292 0
0.536857 -0.00098843 0
0.358669 -0.00260734 0
-0.474596 -0.00423125 0
-0.513862 0.00298257 0
-0.534245 0.00307093 0
-0.138815 0.0127132 0
0.41365 -0.00875083 0
0.467576 -0.00779469 0
0.473692 0.00437896 0
0.395586 0.00989783 0
-0.220181 0.000362251 0
0.553005 -0.0069243 0
-0.512239 0.00374213 0
-0.122224 -0.00814683 0
0.534313 0.00519572 0
-0.0985066 -0.00495079 0
-0.414142 0.0202412 0
-0.513621 0.00292465 0
-0.313179 -0.0148746 0
-0.520629 -0.00339927 0
-0.522863 -0.00898663 0
0.512353 -0.000613204 0
-0.528917 0.00807628 0
-0.520904 0.00675647 0
0.528865 0.00651172 0
0.516087 -0.00169707 0
0.399275 -0.0231827 0
0.554184 -0.00499732 0
0.548446 7.07486e-05 0
0.531646 -0.00535594 0
0.0590748 0.0384557 0
0.540739 -0.00531312 0
0.438032 -0.0124475 0
-0.353811 -0.0245332 0
0.487602 0.00795531 0
-0.484272 0.0079744 0
0.512212 0.0017847 0
-0.431679 0.0150157 0
-0.459799 0.00657369 0
-0.515865 0.00468732 0
0.518588 0.0059812 0
-0.345139 0.024486 0
0.547068 0.00307078 0
0.474513 -0.00766143 0
-0.109 -0.00974991 0
0.553925 -0.00705763 0
-0.508229 -0.0108717 0
0.0718647 0.0625975 0
0.219373 -0.0091978 0
-0.460637 0.013662 0
-0.324924 -0.0137867 0
0.507218 0.000254191 0
-0.227038 -0.0280154 0
0.478113 -0.00529746 0
-0.445205 0.0140753 0
-0.305648 -0.0212101 0
-0.534172 0.00759603 0
-0.527054 0.00974355 0
0.52574 -0.000893523 0
-0.542014 -0.00225499 0
-0.0643385 0.0271983 0
-0.417172 0.0150097 0
-0.540798 0.00438486 0
-0.502409 -0.00883096 0
0.549309 -0.00438909 0
0.194513 0.0320339 0
-0.513914 0.00360487 0
0.55233 0.000991837 0
0.529667 -0.00161297 0
-0.457091 0.0124228 0
-0.538437 -0.00117892 0
-0.529861 -0.00543369 0
0.515163 0.00507333 0
0.268688 0.0306073 0
-0.0824551 0.0193004 0
-0.548518 0.00542658 0
-0.47248 0.00733396 0
0.405479 -0.0235385 0
-0.416115 -0.00629984 0
-0.524283 0.00396913 0
0.320907 -0.00433263 0
0.542149 -0.000554002 0
-0.48121 -0.00932419 0
-0.53021 0.00402774 0
-0.307395 -0.0188945 0
0.264631 0.00852227 0
0.473491 0.00501194 0
-0.500883 0.00883534 0
0.530132 -0.00160814 0
0.546053 0.00299902 0
0.313098 0.0160413 0
0.326538 0.00528395 0
-0.498724 0.00623314 0
0.51233 -0.00436566 0
-0.236569 -0.0128269 0
-0.482556 0.0102779 0
0.512998 -0.000878734 0
-0.46773 0.0100117 0
0.454336 0.0113504 0
0.196798 0.0303476 0
0.283758 -0.000139121 0
0.545727 0.000692026 0
-0.498538 0.00600592 0
0.0993621 -0.0113293 0
0.0494476 -0.0188629 0
-0.355863 0.00406379 0
-0.5234 0.000987624 0
-0.515574 0.00342534 0
-0.511807 -0.00224558 0
0.525448 -0.0018688 0
0.521521 -0.0015661 0
0.537177 -0.00176531 0
-0.528033 -0.0041731 0
0.344629 0.00356521 0
0.0281917 0.0160483 0
-0.551623 0.00620495 0
-0.536417 0.00259215 0
0.51034 -0.00103315 0
-0.512694 0.00353533 0
0.507017 0.0080658 0
-0.520033 -0.00232661 0
-0.504533 -0.000611463 0
-0.234182 -0.0306169 0
-0.528359 0.0028214 0
0.498365 -0.00338397 0
-0.449354 0.0136662 0
-0.506114 -0.00466586 0
-0.201296 0.025711 0
-0.526735 0.00388865 0
-0.535183 0.0045831 0
0.449446 -0.00456675 0
-0.18832 0.00847097 0
0.524734 -0.00175619 0
0.536266 -0.00434609 0
0.34202 0.0177913 0
0.54491 0.00384992 0
0.516999 0.00762593 0
0.542842 0.00504114 0
-0.362699 0.0302029 0
-0.494861 0.00228607 0
-0.550322 0.000795573 0
0.556607 0.000686054 0
-0.0750018 0.00924326 0
0.523022 -0.0028418 0
0.510331 0.00379998 0
0.538617 -0.00150228 0
0.0919491 0.0155685 0
-0.278219 0.0324332 0
0.453653 0.0065718 0
-0.0641746 7.12402e-05 0
-0.258904 0.011832 0
-0.433057 0.014729 0
0.524416 0.00819815 0
-0.38353 0.0186543 0
0.485654 -0.00755087 0
0.400147 -0.00672973 0
-0.548376 0.00783671 0
0.427076 -0.019812 0
0.550795 -0.00735847 0
0.492542 -0.00446736 0
0.526178 0.00919424 0
-0.535011 0.00664548 0
-0.117845 0.0193162 0
0.537242 0.00222119 0
0.534644 -0.00175939 0
0.246731 0.0321008 0
-0.510434 -0.000986711 0
-0.500992 0.00618787 0
0.550458 0.000134029 0
-0.512247 -0.0043981 0
0.53068 0.00274036 0
0.534554 -0.00372305 0
0.256032 -0.0312563 0
0.512259 0.00411924 0
-0.52551 0.00394956 0
-0.449842 -0.00123233 0
-0.302276 -0.00376388 0
0.0419578 -0.0106408 0
0.063512 -0.0390904 0
-0.482095 0.00401159 0
0.238158 -0.0346617 0
-0.0567989 0.0529184 0
-0.542503 0.00759689 0
-0.388091 0.0174624 0
-0.529671 0.00544832 0
-0.220061 -0.0182763 0
0.53413 0.00849282 0
-0.376911 0.0196702 0
-0.535988 -0.000445939 0
-87.8775 363.479 0
0.533023 -0.00741171 0
0.531714 -0.00196392 0
-0.43727 0.0181588 0
0.516795 0.00338227 0
0.490391 -0.00181696 0
-782.609 -1399.57 0
0.162865 0.0187709 0
-0.530545 0.00450654 0
-0.441519 -0.00365402 0
0.528046 0.00415006 0
5.51247 -11.3575 0
0.49986 0.00607523 0
-0.519184 -0.00824036 0
-0.331936 -7.07084e-05 0
-0.527261 -0.00466316 0
-0.537631 0.00847025 0
0.524044 -0.00181253 0
-0.546252 -0.00226401 0
-0.473691 0.0116313 0
0.411394 0.0160343 0
-0.514731 -0.000296707 0
-0.429249 0.0181775 0
-0.476035 0.0103747 0
0.529585 0.00506108 0
0.477469 -0.00962169 0
-0.317318 0.0245941 0
0.544295 -0.00321322 0
-0.530754 -0.00775983 0
-0.494139 -0.00515882 0
-0.536527 0.00130382 0
0.0460003 -0.0414128 0
-0.5165 -0.00735697 0
0.522076 0.00509404 0
-0.526652 0.0044586 0
-0.523645 0.00225806 0
-0.129562 0.0194484 0
0.342056 0.0175456 0
-0.171847 0.047492 0
0.112332 0.0266911 0
-0.531272 0.00477873 0
-0.0965705 0.00434699 0
-0.532181 -0.00161482 0
-0.534994 0.00685646 0
0.51038 -0.00813017 0
0.449845 0.0119365 0
-0.500726 0.00804747 0
0.474142 0.00592276 0
0.471221 0.00134208 0
-0.510575 0.00365571 0
-0.282263 -0.00968676 0
0.372864 -0.0230566 0
-0.51105 0.000760242 0
0.451498 -0.0121237 0
0.206427 -0.00671731 0
-0.525562 -0.00165594 0
0.490437 -0.00124063 0
0.515936 -0.00348767 0
0.523757 -0.00664811 0
0.533649 -0.00249175 0
0.542794 -0.000403286 0
0.514189 0.00857804 0
-0.528817 0.0032918 0
0.37971 0.0122935 0
-0.43723 -0.006975 0
0.24944 0.034731 0
-0.497916 0.00323545 0
-0.178341 -0.00771425 0
-0.413226 0.0150706 0
0.150239 -0.0188004 0
-0.539844 0.00478916 0
0.515027 -0.00184184 0
-0.146027 0.038482 0
0.184343 0.020054 0
-0.547121 0.00410154 0
0.518682 0.00202283 0
0.534792 -0.00133032 0
0.511064 0.0109103 0
0.546087 -0.00656985 0
-0.521646 0.0039343 0
-0.538143 0.00296949 0
0.530978 -0.00242153 0
-0.37161 0.0213334 0
[...]
      <PointData Scalars="T">
        <DataArray type="Float32" Name="T" format="ascii" NumberOfComponents="1">
319.608
478.995
318.147
318.147
478.995
478.995
318.147
494.213
318.147
478.995
318.147
319.608
478.995
494.213
478.995
319.608
494.213
316.934
309.775
478.995
478.995
319.608
478.995
318.147
318.147
319.608
494.213
318.147
478.995
478.995
478.995
494.213
323.754
318.147
319.608
318.147
311.097
478.995
494.213
494.213
319.608
319.608
494.213
333.445
304.375
478.995
319.608
318.147
318.147
318.147
319.608
494.213
478.995
319.608
478.995
478.995
318.147
319.608
319.608
318.147
319.608
319.608
318.147
318.147
478.995
1148.43
318.147
318.147
319.608
310.242
478.995
319.608
305.04
319.608
319.608
494.213
319.608
478.995
319.608
1014.94
494.213
478.995
319.608
999.659
318.147
478.995
318.147
494.213
478.995
494.213
319.608
494.213
318.147
478.995
494.213
478.995
319.608
478.995
478.995
494.213
494.213
494.213
318.147
494.213
318.147
319.608
319.608
319.608
319.608
494.213
478.995
478.995
478.995
319.608
319.608
478.995
478.995
319.608
1030.83
494.213
318.147
494.213
318.147
478.995
318.147
318.147
319.608
319.608
494.213
318.147
318.147
318.147
1211.67
478.995
318.147
318.147
318.147
478.995
318.147
318.147
318.147
319.608
318.147
494.213
478.995
318.147
478.995
478.995
494.213
478.995
319.608
319.608
494.213
318.147
319.608
319.608
318.147
478.995
494.213
318.147
318.147
494.213
478.995
478.995
478.995
318.147
318.147
319.608
319.608
1031.99
318.147
478.995
494.213
319.608
494.213
478.995
478.995
494.213
494.213
494.213
318.147
478.995
478.995
319.608
318.147
318.147
318.147
343.4
318.147
319.608
318.147
318.147
494.213
319.608
478.995
341.231
478.995
478.995
478.995
319.608
478.995
319.608
318.147
494.213
318.147
494.213
319.608
318.147
478.995
494.213
331.126
494.213
318.147
478.995
494.213
478.995
478.995
318.147
494.213
478.995
478.995
478.995
494.213
318.147
319.608
478.995
305.04
318.147
478.995
494.213
494.213
319.608
319.608
478.995
478.995
478.995
318.147
494.213
478.995
318.147
318.147
494.213
478.995
494.213
319.608
319.608
478.995
318.147
319.608
319.608
319.608
478.995
318.147
494.213
478.995
318.147
478.995
319.608
319.608
318.147
309.995
478.995
318.147
318.147
478.995
1009.72
478.995
494.213
318.147
318.147
318.147
494.213
319.608
319.608
478.995
478.995
318.147
478.995
319.608
494.213
494.213
494.213
478.995
318.147
478.995
494.213
478.995
478.995
478.995
318.147
478.995
318.147
318.147
319.608
319.608
319.608
319.608
478.995
478.995
1062.2
310.242
478.995
318.147
319.608
318.147
319.608
478.995
319.608
996.493
478.995
478.995
319.608
478.995
318.147
318.147
478.995
318.147
318.147
318.147
319.608
478.995
478.995
319.608
318.147
319.608
494.213
478.995
338.19
494.213
319.608
318.147
318.147
319.608
478.995
494.213
494.213
318.147
318.147
478.995
318.147
478.995
478.995
478.995
478.995
494.213
319.608
478.995
494.213
478.995
318.147
318.147
478.995
319.608
318.147
494.213
319.608
478.995
494.213
319.608
318.147
319.608
494.213
494.213
494.213
478.995
318.147
494.213
478.995
319.608
494.213
478.995
478.995
319.608
318.147
478.995
318.147
494.213
494.213
1150.09
318.147
494.213
319.608
478.995
478.995
478.995
319.608
478.995
319.608
478.995
478.995
494.213
478.995
318.147
319.608
478.995
319.608
310.42
478.995
494.213
318.147
1025.85
318.147
318.147
494.213
318.147
318.147
318.147
318.147
318.147
319.608
478.995
319.608
494.213
319.608
478.995
494.213
478.995
318.147
478.995
318.147
478.995
319.608
478.995
319.608
318.147
319.608
318.147
478.995
478.995
318.147
478.995
319.608
478.995
319.608
1181.76
494.213
478.995
478.995
319.608
314.337
478.995
318.147
950.318
494.213
494.213
478.995
494.213
319.608
318.147
494.213
319.608
494.213
494.213
318.147
318.147
494.213
478.995
1013.24
494.213
317.244
494.213
318.147
478.995
494.213
318.147
319.608
494.213
494.213
478.995
478.995
319.608
1036.64
318.147
318.147
319.608
478.995
478.995
478.995
318.147
319.608
494.213
494.213
494.213
478.995
311.097
319.608
318.147
308.417
478.995
319.608
319.608
304.97
478.995
319.608
318.147
494.213
318.147
478.995
478.995
478.995
494.213
494.213
494.213
494.213
494.213
318.147
318.147
318.147
319.608
318.147
319.608
319.608
494.213
319.608
478.995
318.147
319.608
478.995
319.608
478.995
1017.43
478.995
494.213
319.608
318.147
319.608
318.147
318.147
318.147
478.995
319.608
319.608
956.047
319.608
968.009
478.995
494.213
318.147
318.147
478.995
478.995
494.213
494.213
494.213
319.608
319.608
319.608
319.608
494.213
478.995
319.608
478.995
329.89
319.608
494.213
478.995
318.147
478.995
319.608
319.608
494.213
319.608
494.213
318.147
1078.79
478.995
309.953
318.147
494.213
494.213
1100.21
478.995
478.995
319.608
318.147
318.147
314.467
319.608
494.213
494.213
494.213
494.213
478.995
319.608
318.147
478.995
319.608
494.213
304.528
319.608
318.147
478.995
319.608
494.213
1165.15
319.608
318.147
494.213
319.608
478.995
318.147
318.147
319.608
318.147
494.213
494.213
478.995
1201.34
319.608
494.213
318.147
494.213
494.213
319.608
318.147
494.213
494.213
478.995
478.995
318.147
318.147
478.995
494.213
494.213
319.608
318.147
478.995
478.995
318.147
318.147
319.608
319.608
478.995
494.213
494.213
494.213
494.213
319.608
478.995
319.608
319.608
494.213
478.995
318.147
318.147
494.213
478.995
318.147
494.213
494.213
478.995
318.147
494.213
478.995
319.608
478.995
478.995
318.147
319.608
478.995
319.608
318.147
478.995
319.608
318.147
478.995
478.995
318.147
318.147
318.147
319.608
319.608
494.213
494.213
478.995
478.995
319.608
478.995
494.213
321.456
319.608
478.995
478.995
478.995
318.147
319.608
319.608
319.608
478.995
318.147
318.147
1083.11
478.995
319.608
318.147
319.608
319.608
319.608
478.995
319.608
319.608
318.147
478.995
319.608
478.995
318.147
319.608
318.147
319.608
318.147
478.995
319.608
478.995
319.608
478.995
478.995
478.995
318.147
494.213
319.608
478.995
318.147
319.608
494.213
318.147
1093.9
494.213
494.213
478.995
478.995
478.995
318.147
318.147
318.147
318.147
318.147
984.795
319.608
478.995
494.213
318.147
318.147
478.995
317.244
478.995
319.608
478.995
478.995
478.995
494.213
494.213
321.117
478.995
319.608
478.995
494.213
478.995
494.213
494.213
318.147
319.608
318.147
478.995
494.213
478.995
478.995
494.213
478.995
494.213
319.608
478.995
494.213
318.147
318.147
318.147
478.995
478.995
494.213
319.608
494.213
310.749
478.995
494.213
494.213
319.608
318.147
319.608
339.356
318.147
478.995
478.995
318.147
478.995
319.608
478.995
319.608
478.995
494.213
319.608
478.995
331.852
478.995
478.995
318.147
311.081
494.213
319.608
318.147
323.888
319.608
478.995
494.213
494.213
319.608
478.995
340.341
319.608
318.147
318.147
494.213
478.995
347.808
478.995
478.995
318.147
318.147
319.608
318.147
478.995
494.213
319.608
478.995
319.608
319.608
478.995
478.995
319.608
1201.08
318.147
318.147
478.995
478.995
318.147
320.741
478.995
494.213
494.213
319.608
327.94
494.213
478.995
478.995
1003.8
494.213
318.147
478.995
318.147
478.995
318.147
318.147
1051.26
318.147
478.995
319.608
318.147
478.995
494.213
319.608
318.147
319.608
319.608
319.608
319.608
478.995
319.608
318.147
494.213
318.147
319.608
478.995
318.147
318.147
319.608
478.995
478.995
494.213
318.147
494.213
318.147
494.213
478.995
478.995
319.608
494.213
494.213
494.213
318.147
1090.01
478.995
318.147
319.608
494.213
494.213
318.147
478.995
318.147
318.147
494.213
319.608
494.213
319.608
318.147
319.608
318.147
319.608
319.608
478.995
319.608
318.147
318.147
478.995
318.147
494.213
478.995
494.213
318.147
319.608
478.995
494.213
478.995
318.147
478.995
478.995
318.147
318.147
319.608
319.608
478.995
478.995
318.147
478.995
319.608
478.995
494.213
331.852
494.213
318.147
478.995
494.213
478.995
478.995
478.995
494.213
494.213
478.995
478.995
319.608
478.995
318.147
318.147
318.147
318.147
319.608
478.995
318.147
478.995
319.608
478.995
319.608
319.608
494.213
319.608
478.995
318.147
319.608
318.147
494.213
318.147
478.995
316.347
494.213
494.213
319.608
494.213
478.995
478.995
494.213
318.147
319.608
319.608
319.608
494.213
318.147
494.213
318.147
343.819
319.608
319.608
319.608
318.147
318.147
494.213
319.608
319.608
494.213
478.995
318.147
478.995
304.97
478.995
494.213
478.995
1027.74
494.213
478.995
319.608
494.213
319.608
478.995
318.147
478.995
319.608
478.995
478.995
319.608
319.608
478.995
318.147
319.608
318.147
329.89
494.213
478.995
494.213
1204.05
318.147
478.995
318.147
478.995
478.995
318.147
318.147
478.995
319.608
318.147
318.147
318.147
478.995
318.147
319.608
478.995
478.995
478.995
494.213
478.995
318.147
478.995
318.147
494.213
319.608
318.147
319.608
478.995
494.213
494.213
478.995
318.147
319.608
494.213
318.147
307.396
494.213
494.213
318.147
478.995
316.934
318.147
319.608
494.213
478.995
478.995
478.995
319.608
1108.24
319.608
478.995
478.995
318.147
319.608
319.608
318.147
319.608
494.213
1087.97
494.213
478.995
318.147
319.608
319.608
319.608
319.608
319.608
494.213
478.995
478.995
478.995
494.213
478.995
478.995
318.147
318.147
318.147
318.147
318.147
478.995
318.147
478.995
321.456
494.213
478.995
319.608
478.995
1205.3
318.147
1177.53
318.147
318.147
318.147
318.147
319.608
319.608
318.147
319.608
494.213
304.848
478.995
319.608
319.608
318.147
494.213
318.147
494.213
319.608
319.608
319.608
319.608
478.995
318.147
478.995
319.608
318.147
318.147
1143.16
1142.11
1101.62
318.147
318.147
494.213
319.608
478.995
319.608
318.147
494.213
478.995
913.253
318.147
319.608
478.995
318.147
478.995
319.608
478.995
478.995
1021.1
478.995
318.147
318.147
494.213
478.995
478.995
478.995
318.147
494.213
319.608
478.995
319.608
319.608
478.995
478.995
319.608
478.995
318.147
318.147
318.147
478.995
329.783
318.147
494.213
478.995
318.147
478.995
318.147
478.995
478.995
318.147
494.213
494.213
318.147
318.147
319.608
318.147
319.608
494.213
319.608
319.608
478.995
478.995
318.147
478.995
319.608
304.375
1027.74
478.995
319.608
1146.37
959.608
307.63
318.147
494.213
478.995
318.147
478.995
478.995
494.213
494.213
478.995
318.147
318.147
478.995
478.995
318.147
494.213
318.147
319.608
319.608
478.995
478.995
318.147
970.201
319.608
478.995
319.608
318.147
478.995
318.147
318.147
494.213
478.995
494.213
494.213
478.995
478.995
478.995
478.995
319.608
318.147
318.147
478.995
318.147
478.995
478.995
318.147
478.995
478.995
319.608
478.995
494.213
318.147
494.213
494.213
319.608
478.995
319.608
319.608
318.147
318.147
478.995
319.608
328.061
478.995
478.995
319.608
478.995
478.995
318.147
318.147
318.147
494.213
318.147
478.995
340.341
318.147
478.995
478.995
478.995
318.147
318.147
478.995
478.995
478.995
494.213
319.608
494.213
318.147
494.213
494.213
318.147
319.608
318.147
494.213
319.608
318.147
319.608
1042.72
318.147
1078.79
494.213
478.995
478.995
494.213
494.213
494.213
319.608
319.608
494.213
478.995
478.995
318.147
478.995
478.995
478.995
494.213
494.213
318.147
318.147
319.608
478.995
319.608
319.608
318.147
494.213
318.147
319.608
319.608
317.301
319.608
478.995
1074
1157.1
478.995
478.995
318.147
494.213
494.213
319.608
478.995
494.213
478.995
1015.29
478.995
478.995
494.213
318.147
494.213
494.213
478.995
494.213
478.995
318.147
494.213
478.995
318.147
318.147
318.147
494.213
494.213
478.995
319.608
478.995
494.213
346.236
478.995
478.995
478.995
319.608
478.995
319.608
319.608
318.147
494.213
318.147
328.65
494.213
1108.24
318.147
319.608
494.213
478.995
478.995
318.147
478.995
494.213
478.995
319.608
319.608
318.147
319.608
494.213
478.995
478.995
318.147
319.608
478.995
319.608
319.608
494.213
494.213
494.213
319.608
319.608
319.608
478.995
319.608
1090.01
319.608
478.995
478.995
478.995
319.608
318.147
318.147
318.147
494.213
318.147
318.147
1037.16
478.995
319.608
319.608
318.147
478.995
318.147
478.995
318.147
319.608
318.147
310.476
494.213
478.995
494.213
319.608
318.147
318.147
318.147
478.995
319.608
478.995
319.608
318.147
319.608
494.213
318.147
478.995
319.608
319.608
318.147
494.213
318.147
318.147
318.147
318.147
319.608
1100
319.608
318.147
478.995
494.213
494.213
972.796
478.995
478.995
982.373
478.995
318.147
318.147
494.213
319.608
478.995
478.995
478.995
318.147
494.213
494.213
319.608
318.147
319.608
319.608
319.608
478.995
319.608
319.608
318.147
319.608
478.995
334.338
478.995
494.213
494.213
318.147
494.213
478.995
478.995
478.995
478.995
478.995
1079.31
478.995
319.608
319.608
318.147
478.995
318.147
478.995
318.147
319.608
478.995
305.508
318.147
319.608
319.608
318.147
1020.07
318.147
313.947
478.995
319.608
478.995
319.608
478.995
318.147
318.147
478.995
478.995
494.213
478.995
494.213
478.995
318.147
318.147
318.147
494.213
319.608
478.995
318.147
494.213
319.608
478.995
478.995
494.213
478.995
318.147
318.147
494.213
318.147
319.608
494.213
478.995
318.147
319.608
478.995
319.608
319.608
318.147
318.147
318.147
494.213
478.995
494.213
494.213
319.608
318.147
319.608
310.42
318.147
478.995
1134.09
494.213
318.147
313.361
318.147
318.147
478.995
318.147
319.608
319.608
319.608
318.147
319.608
478.995
478.995
478.995
319.608
478.995
478.995
318.147
309.102
318.147
304.309
478.995
319.608
478.995
319.608
319.608
478.995
318.147
494.213
494.213
494.213
318.147
494.213
494.213
478.995
494.213
494.213
478.995
494.213
494.213
1046.06
318.147
478.995
478.995
319.608
319.608
318.147
318.147
319.608
478.995
478.995
319.608
494.213
494.213
319.608
478.995
494.213
319.608
319.608
318.147
478.995
478.995
318.147
478.995
478.995
318.147
494.213
309.382
318.147
318.147
318.147
478.995
478.995
478.995
318.147
478.995
478.995
478.995
478.995
494.213
478.995
319.608
494.213
478.995
478.995
319.608
478.995
318.147
478.995
1025.98
319.608
478.995
494.213
318.147
318.147
494.213
494.213
1106.81
318.147
1010.67
478.995
959.608
494.213
478.995
494.213
494.213
319.608
318.147
494.213
478.995
318.147
319.608
318.147
494.213
318.147
318.147
319.608
319.608
478.995
494.213
478.995
478.995
319.608
478.995
319.608
478.995
494.213
494.213
318.147
305.715
494.213
478.995
318.147
1025.98
319.608
318.147
319.608
318.147
318.147
319.608
478.995
494.213
494.213
478.995
318.147
318.147
494.213
318.147
1004.73
478.995
478.995
494.213
478.995
319.608
318.147
478.995
494.213
319.608
319.608
478.995
318.147
478.995
318.147
318.147
318.147
478.995
319.608
318.147
318.147
319.608
494.213
305.214
494.213
494.213
318.147
318.147
494.213
478.995
319.608
318.147
318.147
494.213
494.213
478.995
319.608
319.608
494.213
319.608
318.147
1077.28
318.147
319.608
478.995
494.213
494.213
478.995
478.995
478.995
478.995
478.995
319.608
494.213
310.242
494.213
494.213
319.608
478.995
478.995
478.995
494.213
318.147
478.995
494.213
319.608
478.995
494.213
478.995
319.608
318.147
319.608
318.147
494.213
494.213
478.995
494.213
478.995
478.995
494.213
478.995
478.995
318.147
319.608
319.608
348.679
323.754
494.213
494.213
319.608
319.608
494.213
494.213
478.995
318.147
478.995
478.995
478.995
318.147
478.995
318.147
319.608
317.402
318.147
478.995
319.608
478.995
478.995
494.213
319.608
478.995
319.608
312.338
319.608
318.147
478.995
494.213
318.147
318.147
310.42
319.608
319.608
318.147
494.213
318.147
318.147
478.995
1133.77
478.995
318.147
318.147
318.147
478.995
478.995
478.995
319.608
478.995
319.608
955.425
319.608
318.147
318.147
318.147
478.995
319.608
494.213
319.608
318.147
319.608
478.995
494.213
494.213
478.995
494.213
494.213
319.608
478.995
494.213
318.147
318.147
319.608
478.995
478.995
494.213
494.213
319.608
478.995
494.213
494.213
319.608
478.995
1124.34
318.147
478.995
319.608
494.213
318.147
478.995
494.213
319.608
478.995
318.147
494.213
478.995
318.147
319.608
494.213
478.995
478.995
318.147
478.995
494.213
318.147
494.213
319.608
319.608
1191.51
319.608
318.147
318.147
318.147
336.624
494.213
318.147
319.608
1047.07
319.608
478.995
494.213
494.213
478.995
494.213
318.147
494.213
319.608
319.608
319.608
318.147
319.608
318.147
318.147
319.608
494.213
319.608
319.608
494.213
318.147
318.147
319.608
308.616
494.213
318.147
318.147
494.213
319.608
494.213
494.213
318.147
478.995
478.995
318.147
478.995
319.608
331.852
319.608
318.147
318.147
318.147
318.147
318.147
314.071
478.995
494.213
1159.57
319.608
318.147
478.995
318.147
318.147
494.213
318.147
319.608
318.147
318.147
318.147
478.995
319.608
318.147
478.995
318.147
494.213
319.608
318.147
319.608
478.995
494.213
319.608
478.995
478.995
318.147
318.147
318.147
478.995
319.608
305.265
478.995
478.995
318.147
318.147
319.608
494.213
494.213
494.213
318.147
319.608
318.147
494.213
478.995
318.147
318.147
319.608
319.608
318.147
478.995
319.608
494.213
319.608
478.995
478.995
319.608
319.608
478.995
950.318
319.608
494.213
478.995
1012.97
1009.72
478.995
478.995
494.213
318.147
318.147
494.213
319.608
494.213
319.608
318.147
494.213
318.147
318.147
478.995
318.147
913.253
950.64
478.995
478.995
319.608
319.608
318.147
494.213
318.147
494.213
318.147
318.147
478.995
494.213
478.995
318.147
327.247
319.608
318.147
494.213
318.147
478.995
318.147
478.995
318.147
478.995
478.995
319.608
318.147
494.213
318.147
478.995
319.608
478.995
494.213
494.213
494.213
318.147
478.995
494.213
1021.1
494.213
494.213
318.147
478.995
318.147
318.147
319.608
318.147
319.608
318.147
478.995
494.213
995.949
319.608
319.608
478.995
318.147
318.147
318.147
318.147
478.995
478.995
319.608
319.608
318.147
318.147
1050.21
305.079
494.213
478.995
478.995
318.147
478.995
309.269
494.213
318.147
478.995
494.213
319.608
478.995
319.608
318.147
319.608
1122.55
494.213
319.608
318.147
318.147
318.147
319.608
494.213
319.608
318.147
478.995
318.147
319.608
318.147
494.213
319.608
319.608
494.213
478.995
1021.1
318.147
318.147
478.995
478.995
1205.3
494.213
318.147
318.147
478.995
494.213
318.147
494.213
478.995
478.995
318.147
319.608
494.213
1083.52
494.213
318.147
494.213
494.213
319.608
319.608
319.608
319.608
478.995
494.213
494.213
494.213
319.608
318.147
319.608
318.147
478.995
478.995
478.995
478.995
494.213
478.995
478.995
334.338
319.608
318.147
318.147
494.213
494.213
478.995
478.995
478.995
318.147
959.608
319.608
319.608
318.147
494.213
494.213
318.147
319.608
318.147
494.213
319.608
478.995
478.995
318.147
318.147
318.147
318.147
319.608
319.608
319.608
319.608
318.147
318.147
478.995
318.147
478.995
319.608
478.995
478.995
478.995
318.147
318.147
1139.45
319.608
478.995
494.213
478.995
494.213
318.147
478.995
1031.99
318.147
308.318
494.213
478.995
478.995
1020.33
318.147
318.147
318.147
494.213
307.63
318.147
318.147
1134.19
494.213
318.147
319.608
319.608
319.608
318.147
319.608
494.213
318.147
304.309
319.608
478.995
478.995
478.995
478.995
478.995
318.147
494.213
1124.55
478.995
478.995
478.995
319.608
318.147
318.147
478.995
318.147
318.147
318.147
318.147
319.608
478.995
478.995
494.213
318.147
478.995
318.147
494.213
318.147
1003.8
1072.34
478.995
319.608
494.213
494.213
319.608
494.213
344.497
478.995
318.147
319.608
319.608
1134.62
319.608
478.995
494.213
318.147
478.995
318.147
318.147
319.608
319.608
319.608
478.995
319.608
1074
494.213
317.244
494.213
494.213
1050.21
318.147
478.995
478.995
478.995
318.147
494.213
478.995
319.608
318.147
318.147
494.213
478.995
305.184
478.995
478.995
319.608
494.213
478.995
494.213
478.995
494.213
478.995
478.995
341.195
319.608
478.995
494.213
318.147
318.147
494.213
478.995
319.608
318.147
319.608
478.995
478.995
318.147
494.213
478.995
494.213
323.754
318.147
318.147
319.608
319.608
319.608
319.608
318.147
478.995
494.213
1014.94
1013.24
494.213
478.995
319.608
478.995
319.608
318.147
478.995
318.147
319.608
494.213
494.213
327.582
478.995
478.995
319.608
478.995
478.995
478.995
478.995
494.213
478.995
494.213
478.995
478.995
319.608
494.213
494.213
478.995
494.213
319.608
356.585
319.608
319.608
478.995
494.213
318.147
478.995
478.995
494.213
318.147
318.147
478.995
494.213
319.608
318.147
494.213
478.995
494.213
494.213
478.995
318.147
478.995
494.213
319.608
319.608
478.995
494.213
318.147
318.147
478.995
494.213
478.995
478.995
1137.78
318.147
319.608
319.608
319.608
319.608
478.995
318.147
318.147
319.608
478.995
494.213
478.995
494.213
319.608
318.147