<?xml version="1.0"?>
<VTKFile type="ImageData" version="0.1" byte_order="LittleEndian">
  <ImageData Origin="0 0 0" Spacing="1e-05 1e-05 1e-05" WholeExtent="0 191 0 191 0 0">
    <Piece Extent="0 191 0 191 0 0">
      <CellData Scalars="T">
        <DataArray type="Float32" Name="T" format="ascii" NumberOfComponents="1">
415.732
15000
14999.6
14999
14997.9
14996.2
14993.8
14990.2
14985.1
14977.9
14968.1
14955
14937.5
14914.8
14885.4
14848.2
14801.4
14743.5
14672.5
14586.6
14483.7
14361.9
14219.2
14053.7
13863.9
13648.2
13405.7
13135.6
12837.6
12512
12159.6
11781.7
11380.1
10957.1
10515.6
10058.8
9590.49
9114.43
8634.72
8155.52
7680.98
7215.11
6761.73
6324.35
5906.14
5509.83
5137.69
4791.5
4472.53
4181.59
3918.97
3684.54
3477.75
3297.73
3143.27
3012.95
2905.16
2818.17
2750.19
2699.39
2664.02
2642.34
2632.77
2633.81
2644.12
2662.5
2687.94
2719.52
2756.51
2798.29
2844.34
2894.28
2947.75
3004.51
3064.33
3127.03
3192.44
3260.42
3330.83
3403.53
3478.37
3555.21
3633.9
3714.26
3796.11
3879.24
3963.43
4048.38
4133.81
4219.35
4304.59
4389.11
4472.41
4553.97
4633.28
4709.79
4782.97
4852.34
4917.43
4977.85
5033.27
5083.43
5128.16
5167.35
5200.97
5229.07
5251.75
5269.18
5281.6
5289.26
5292.48
5291.63
5287.09
5279.26
5268.55
5255.4
5240.17
5223.23
5204.86
5185.29
5164.62
5142.87
5119.97
5095.71
5069.8
5041.89
5011.57
4978.39
4941.95
4901.88
4857.9
4809.85
4757.67
4701.51
4641.63
4578.46
4512.59
4444.72
4375.64
4306.23
4237.38
4170.01
4104.98
4043.1
3985.1
3931.6
3883.1
3839.99
3802.53
3770.89
3745.1
3725.14
3710.88
3702.16
3698.73
3700.35
3706.73
3717.55
3732.47
3751.15
3773.19
3798.19
3825.69
3855.2
3886.19
3918.09
3950.3
3982.18
4013.09
4042.38
4069.43
4093.65
4114.54
4131.66
4144.68
4153.37
4157.62
4157.42
4152.84
4143.98
4130.84
4113.2
4090.2
4059.83
4017.73
3955.04
3854.23
3680.98
3367.85
2780.43
1644.3
312.239
604.715
15000
14999.6
14999
14997.9
14996.2
14993.8
14990.2
14985.1
14977.9
14968.2
14955
14937.6
14914.9
14885.6
14848.4
14801.7
14743.8
14672.9
14587
14484.3
14362.5
14219.9
14054.6
13864.9
13649.4
13407
13137
12839.1
12513.7
12161.4
11783.5
11381.9
10959
10517.5
10060.7
9592.28
9116.1
8636.24
8156.85
7682.08
7215.94
6762.27
6324.57
5906.01
5509.33
5136.8
4790.22
4470.86
4179.52
3916.52
3681.7
3474.56
3294.19
3139.4
3008.78
2900.72
2813.48
2745.27
2694.29
2658.74
2636.93
2627.24
2628.18
2638.4
2656.73
2682.1
2713.63
2750.58
2792.3
2838.31
2888.18
2941.59
2998.28
3058.02
3120.62
3185.94
3253.82
3324.12
3396.71
3471.45
3548.19
3626.79
3707.08
3788.87
3871.96
3956.13
4041.09
4126.54
4212.13
4297.46
4382.08
4465.51
4547.24
4626.74
4703.46
4776.87
4846.49
4911.85
4972.55
5028.25
5078.71
5123.72
5163.19
5197.08
5225.44
5248.36
5266.02
5278.63
5286.46
5289.84
5289.11
5284.66
5276.9
5266.23
5253.09
5237.85
5220.87
5202.44
5182.78
5162
5140.14
5117.1
5092.71
5066.66
5038.61
5008.14
4974.84
4938.29
4898.12
4854.06
4805.95
4753.74
4697.55
4637.67
4574.53
4508.7
4440.88
4371.86
4302.52
4233.76
4166.47
4101.52
4039.73
3981.8
3928.37
3879.95
3836.9
3799.51
3767.92
3742.19
3722.28
3708.07
3699.39
3696.02
3697.68
3704.1
3714.95
3729.91
3748.61
3770.67
3795.67
3823.15
3852.64
3883.58
3915.43
3947.55
3979.33
4010.12
4039.28
4066.18
4090.26
4110.99
4127.95
4140.82
4149.37
4153.49
4153.18
4148.52
4139.59
4126.41
4108.74
4085.76
4055.46
4013.49
3951.11
3851.08
3680
3373.53
2808.93
1759.9
311.325
606.729
15000
14999.6
14999
14997.9
14996.3
14993.8
14990.2
14985.1
14978
14968.3
14955.1
14937.8
14915.1
14885.9
14848.7
14802.1
14744.4
14673.6
14587.9
14485.3
14363.8
14221.4
14056.3
13866.9
13651.6
13409.5
13139.8
12842.2
12517
12164.9
11787.2
11385.7
10962.8
10521.3
10064.4
9595.87
9119.47
8639.31
8159.55
7684.33
7217.68
6763.41
6325.07
5905.83
5508.42
5135.14
4787.78
4467.64
4175.52
3911.73
3676.17
3468.29
3287.23
3131.8
3000.57
2891.95
2804.21
2735.56
2684.18
2648.3
2626.2
2616.26
2617
2627.06
2645.25
2670.5
2701.93
2738.77
2780.4
2826.3
2876.06
2929.33
2985.87
3045.44
3107.86
3172.98
3240.65
3310.75
3383.12
3457.66
3534.21
3612.63
3692.77
3774.44
3857.45
3941.57
4026.54
4112.04
4197.74
4283.22
4368.05
4451.75
4533.8
4613.66
4690.79
4764.67
4834.78
4900.67
4961.92
5018.19
5069.22
5114.8
5154.83
5189.26
5218.13
5241.53
5259.63
5272.64
5280.82
5284.5
5284.02
5279.76
5272.13
5261.55
5248.43
5233.16
5216.11
5197.55
5177.72
5156.74
5134.65
5111.35
5086.68
5060.35
5032.02
5001.29
4967.73
4930.95
4890.59
4846.38
4798.14
4745.85
4689.64
4629.76
4566.66
4500.91
4433.19
4364.31
4295.11
4226.51
4159.38
4094.6
4032.97
3975.21
3921.93
3873.64
3830.73
3793.46
3761.99
3736.37
3716.56
3702.45
3693.87
3690.58
3692.33
3698.83
3709.75
3724.77
3743.52
3765.6
3790.61
3818.07
3847.5
3878.35
3910.07
3942.03
3973.61
4004.16
4033.05
4059.67
4083.44
4103.86
4120.52
4133.09
4141.35
4145.23
4144.7
4139.86
4130.8
4117.54
4099.84
4076.88
4046.68
4004.94
3943.04
3844.03
3675.3
3374.59
2825.34
1815.98
311.694
607.559
15000
14999.6
14999
14997.9
14996.3
14993.8
14990.3
14985.2
14978.1
14968.4
14955.3
14938
14915.4
14886.3
14849.2
14802.8
14745.2
14674.6
14589.2
14486.9
14365.7
14223.6
14058.9
13869.8
13654.9
13413.2
13143.9
12846.7
12521.8
12170
11792.6
11391.3
10968.5
10527
10070.1
9601.29
9124.58
8644
8163.7
7687.83
7220.42
6765.31
6326.03
5905.77
5507.29
5132.9
4784.39
4463.08
4169.8
3904.86
3668.17
3459.21
3277.11
3120.69
2988.56
2879.1
2790.6
2721.27
2669.3
2632.89
2610.34
2600.03
2600.45
2610.25
2628.22
2653.28
2684.54
2721.23
2762.7
2808.43
2858.01
2911.08
2967.39
3026.71
3088.86
3153.69
3221.05
3290.83
3362.89
3437.12
3513.38
3591.54
3671.45
3752.94
3835.82
3919.87
4004.83
4090.4
4176.23
4261.94
4347.07
4431.15
4513.66
4594.06
4671.8
4746.35
4817.19
4883.85
4945.91
5003.02
5054.89
5101.32
5142.17
5177.4
5207.04
5231.15
5249.91
5263.51
5272.22
5276.35
5276.24
5272.27
5264.86
5254.4
5241.33
5226.03
5208.87
5190.13
5170.06
5148.79
5126.34
5102.67
5077.59
5050.84
5022.1
4990.97
4957.04
4919.93
4879.28
4834.83
4786.42
4734.02
4677.75
4617.89
4554.85
4489.21
4421.66
4352.96
4283.99
4215.62
4148.74
4084.21
4022.83
3965.3
3912.25
3864.18
3821.47
3784.39
3753.09
3727.63
3707.98
3694.02
3685.57
3682.42
3684.3
3690.91
3701.94
3717.05
3735.86
3757.98
3782.98
3810.4
3839.74
3870.45
3901.97
3933.68
3964.96
3995.16
4023.66
4049.85
4073.17
4093.13
4109.33
4121.45
4129.31
4132.81
4131.97
4126.87
4117.62
4104.23
4086.48
4063.56
4033.49
3992.03
3930.66
3832.68
3666
3369.6
2829.07
1835.93
311.901
611.231
15000
14999.6
14999
14997.9
14996.3
14993.9
14990.3
14985.2
14978.2
14968.5
14955.5
14938.3
14915.8
14886.8
14849.9
14803.6
14746.3
14676
14590.8
14488.9
14368
14226.4
14062.2
13873.6
13659.2
13418
13149.2
12852.5
12528.1
12176.7
11799.6
11398.6
10976
10534.5
10077.5
9608.55
9131.47
8650.36
8169.39
7692.7
7224.33
6768.12
6327.64
5906.08
5506.21
5130.35
4780.35
4457.51
4162.69
3896.23
3658.05
3447.65
3264.16
3106.45
2973.09
2862.51
2772.98
2702.73
2649.93
2612.82
2589.65
2578.81
2578.79
2588.22
2605.87
2630.66
2661.68
2698.14
2739.38
2784.88
2834.21
2887.01
2943.01
3002
3063.78
3128.22
3195.18
3264.53
3336.17
3409.99
3485.86
3563.67
3643.27
3724.51
3807.21
3891.15
3976.09
4061.73
4147.73
4233.71
4319.22
4403.78
4486.87
4567.96
4646.48
4721.9
4793.68
4861.35
4924.46
4982.66
5035.63
5083.16
5125.1
5161.38
5192.02
5217.08
5236.71
5251.11
5260.52
5265.25
5265.64
5262.07
5254.94
5244.67
5231.67
5216.35
5199.05
5180.09
5159.71
5138.05
5115.16
5090.99
5065.38
5038.1
5008.81
4977.16
4942.75
4905.2
4864.17
4819.42
4770.78
4718.24
4661.9
4602.05
4539.1
4473.62
4406.27
4337.83
4269.15
4201.1
4134.55
4070.36
4009.3
3952.09
3899.35
3851.56
3809.12
3772.29
3741.23
3715.99
3696.54
3682.77
3674.51
3671.53
3673.57
3680.34
3691.5
3706.71
3725.6
3747.76
3772.75
3800.11
3829.32
3859.84
3891.09
3922.47
3953.33
3983.07
4011.04
4036.66
4059.39
4078.74
4094.34
4105.89
4113.21
4116.23
4114.98
4109.55
4100.05
4086.5
4068.69
4045.81
4015.89
3974.75
3913.93
3816.94
3652.09
3359.22
2824.81
1833.75
311.972
612.171
15000
14999.6
14999
14997.9
14996.3
14993.9
14990.4
14985.3
14978.3
14968.7
14955.8
14938.6
14916.2
14887.4
14850.7
14804.7
14747.6
14677.6
14592.8
14491.2
14370.9
14229.8
14066.1
13878.1
13664.4
13423.8
13155.7
12859.6
12535.8
12185
11808.3
11407.7
10985.3
10543.9
10086.8
9617.64
9140.15
8658.45
8176.7
7699.06
7229.56
6772.06
6330.14
5907.01
5505.46
5127.84
4776
4451.31
4154.6
3886.27
3646.24
3434.05
3248.84
3089.49
2954.6
2842.59
2751.77
2680.34
2626.49
2588.45
2564.49
2552.96
2552.35
2561.27
2578.49
2602.92
2633.6
2669.75
2710.7
2755.89
2804.89
2857.34
2912.96
2971.52
3032.85
3096.8
3163.24
3232.08
3303.2
3376.5
3451.89
3529.25
3608.46
3689.37
3771.82
3855.61
3940.5
4026.21
4112.39
4198.67
4284.61
4369.73
4453.51
4535.41
4614.86
4691.31
4764.23
4833.1
4897.49
4957
5011.32
5060.19
5103.46
5141.04
5172.91
5199.14
5219.86
5235.23
5245.52
5251.01
5252.04
5248.98
5242.23
5232.2
5219.32
5203.97
5186.53
5167.32
5146.57
5124.45
5101.02
5076.26
5050.01
5022.07
4992.13
4959.84
4924.84
4886.75
4845.27
4800.14
4751.23
4698.51
4642.1
4582.27
4519.43
4454.14
4387.05
4318.94
4250.62
4182.96
4116.82
4053.04
3992.4
3935.59
3883.23
3835.81
3793.7
3757.18
3726.41
3701.45
3682.25
3668.72
3660.69
3657.92
3660.16
3667.11
3678.42
3693.76
3712.73
3734.92
3759.89
3787.15
3816.19
3846.45
3877.36
3908.31
3938.67
3967.82
3995.14
4020.06
4042.06
4060.67
4075.53
4086.38
4093.05
4095.49
4093.73
4087.9
4078.1
4064.38
4046.49
4023.66
3993.92
3953.12
3892.89
3796.88
3633.69
3343.43
2811.67
1815.99
311.87
613.417
15000
14999.6
14999
14997.9
14996.3
14993.9
14990.4
14985.4
14978.4
14968.9
14956
14939
14916.7
14888.1
14851.6
14805.8
14749
14679.4
14595
14493.9
14374.1
14233.6
14070.5
13883.3
13670.3
13430.5
13163.1
12867.8
12544.7
12194.5
11818.4
11418.2
10996.2
10555
10097.9
9628.5
9150.6
8668.29
8185.71
7707.01
7236.26
6777.31
6333.76
5908.83
5505.36
5125.7
4771.74
4444.87
4145.96
3875.42
3633.22
3418.9
3231.64
3070.33
2933.59
2819.87
2727.46
2654.59
2599.45
2560.26
2535.29
2522.88
2521.52
2529.8
2546.46
2570.39
2600.64
2636.39
2676.94
2721.74
2770.33
2822.34
2877.49
2935.54
2996.32
3059.69
3125.53
3193.74
3264.24
3336.93
3411.73
3488.55
3567.28
3647.79
3729.92
3813.5
3898.3
3984.04
4070.39
4156.99
4243.39
4329.13
4413.68
4496.48
4576.98
4654.61
4728.82
4799.08
4864.94
4925.97
4981.84
5032.28
5077.1
5116.2
5149.53
5177.15
5199.14
5215.7
5227.04
5233.45
5235.26
5232.82
5226.54
5216.83
5204.11
5188.77
5171.19
5151.69
5130.54
5107.9
5083.87
5058.42
5031.44
5002.74
4972.03
4939.01
4903.32
4864.61
4822.6
4777.04
4727.8
4674.87
4618.38
4558.57
4495.87
4430.81
4364.04
4296.3
4228.42
4161.23
4095.59
4032.31
3972.16
3915.84
3863.93
3816.94
3775.24
3739.1
3708.68
3684.04
3665.15
3651.91
3644.14
3641.62
3644.08
3651.23
3662.72
3678.18
3697.23
3719.44
3744.36
3771.49
3800.3
3830.25
3860.74
3891.17
3920.91
3949.36
3975.91
4000
4021.13
4038.87
4052.88
4062.9
4068.82
4070.58
4068.26
4061.96
4051.83
4037.9
4019.94
3997.16
3967.63
3927.21
3867.59
3772.59
3611.02
3323.3
2795.55
1810.13
311.887
617.916
15000
14999.6
14999
14998
14996.4
14994
14990.5
14985.5
14978.6
14969.1
14956.3
14939.4
14917.3
14888.8
14852.5
14807
14750.5
14681.3
14597.4
14496.8
14377.6
14237.7
14075.4
13888.9
13676.7
13437.8
13171.2
12876.8
12554.5
12205.1
11829.7
11430.1
11008.5
10567.6
10110.6
9641.01
9162.75
8679.83
8196.4
7716.6
7244.51
6784.01
6338.68
5911.79
5506.19
5124.27
4767.94
4438.62
4137.22
3864.18
3619.49
3402.72
3213.1
3049.52
2910.63
2794.89
2700.61
2626.02
2569.34
2528.76
2502.56
2489.08
2486.77
2494.24
2510.19
2533.5
2563.18
2598.41
2638.47
2682.78
2730.87
2782.35
2836.94
2894.39
2954.53
3017.23
3082.36
3149.85
3219.62
3291.6
3365.72
3441.9
3520.05
3600.06
3681.81
3765.11
3849.76
3935.48
4021.98
4108.88
4195.76
4282.14
4367.49
4451.28
4532.92
4611.83
4687.46
4759.26
4826.74
4889.48
4947.09
4999.3
5045.88
5086.7
5121.7
5150.9
5174.38
5192.3
5204.88
5212.37
5215.09
5213.41
5207.71
5198.4
5185.89
5170.6
5152.9
5133.13
5111.54
5088.35
5063.64
5037.43
5009.64
4980.09
4948.54
4914.69
4878.22
4838.82
4796.2
4750.16
4700.56
4647.4
4590.81
4531.04
4468.5
4403.71
4337.3
4270.01
4202.63
4135.99
4070.92
4008.22
3948.65
3892.88
3841.51
3795.03
3753.81
3718.11
3688.1
3663.83
3645.3
3632.38
3624.91
3622.67
3625.38
3632.74
3644.4
3660
3679.12
3701.33
3726.16
3753.11
3781.65
3811.2
3841.19
3871
3900.03
3927.66
3953.31
3976.46
3996.6
4013.35
4026.38
4035.49
4040.55
4041.56
4038.6
4031.8
4021.3
4007.15
3989.11
3966.4
3937.1
3897.09
3838.15
3744.22
3584.43
3299.94
2779.31
1816.99
311.963
621.539
15000
14999.6
14999
14998
14996.4
14994
14990.6
14985.6
14978.7
14969.3
14956.6
14939.8
14917.8
14889.5
14853.5
14808.2
14752.1
14683.2
14599.8
14499.8
14381.2
14242
14080.4
13894.8
13683.5
13445.5
13179.9
12886.4
12565.1
12216.6
11842
11443.1
11022
10581.4
10124.6
9655
9176.44
8692.96
8208.7
7727.82
7254.37
6792.24
6345.06
5916.09
5508.21
5123.85
4764.95
4432.95
4128.81
3853
3605.55
3386.05
3193.77
3027.62
2886.28
2768.23
2671.8
2595.23
2536.73
2494.52
2466.85
2452.07
2448.63
2455.09
2470.16
2492.69
2521.67
2556.25
2595.7
2639.41
2686.89
2737.75
2791.68
2848.44
2907.85
2969.78
3034.11
3100.78
3169.73
3240.89
3314.22
3389.66
3467.14
3546.57
3627.83
3710.77
3795.19
3880.85
3967.45
4054.61
4141.94
4228.96
4315.14
4399.94
4482.77
4563.05
4640.19
4713.64
4782.88
4847.47
4906.99
4961.14
5009.66
5052.39
5089.25
5120.23
5145.39
5164.86
5178.84
5187.57
5191.37
5190.57
5185.57
5176.76
5164.55
5149.36
5131.58
5111.53
5089.51
5065.73
5040.32
5013.3
4984.63
4954.16
4921.69
4886.94
4849.62
4809.46
4766.18
4719.61
4669.62
4616.21
4559.52
4499.8
4437.44
4372.95
4306.96
4240.17
4173.36
4107.34
4042.91
3980.87
3921.95
3866.83
3816.07
3770.16
3729.48
3694.28
3664.74
3640.91
3622.76
3610.21
3603.07
3601.13
3604.11
3611.69
3623.53
3639.25
3658.42
3680.6
3705.3
3732.02
3760.21
3789.3
3818.7
3847.8
3876
3902.71
3927.36
3949.44
3968.49
3984.13
3996.09
4004.18
4008.31
4008.51
4004.86
3997.51
3986.63
3972.24
3954.13
3931.5
3902.45
3862.9
3804.68
3711.93
3554.18
3273.61
2761.33
1812.32
311.765
622.294
15000
14999.6
14999
14998
14996.4
14994.1
14990.6
14985.7
14978.9
14969.5
14956.9
14940.2
14918.4
14890.2
14854.4
14809.4
14753.6
14685.2
14602.2
14502.7
14384.8
14246.3
14085.6
13900.7
13690.4
13453.4
13188.8
12896.4
12576.1
12228.5
11854.9
11456.7
11036.3
10596.3
10139.7
9670.19
9191.44
8707.5
8222.48
7740.55
7265.76
6802.02
6352.94
5921.84
5511.6
5124.68
4763.05
4428.21
4121.13
3842.33
3591.87
3369.4
3174.19
3005.2
2861.13
2740.49
2641.63
2562.8
2502.22
2458.12
2428.75
2412.44
2407.64
2412.89
2426.89
2448.47
2476.6
2510.38
2549.08
2592.07
2638.83
2688.96
2742.13
2798.1
2856.68
2917.75
2981.19
3046.95
3114.97
3185.22
3257.66
3332.26
3408.97
3487.71
3568.39
3650.88
3734.99
3820.49
3907.11
3994.49
4082.22
4169.85
4256.85
4342.66
4426.71
4508.38
4587.1
4662.28
4733.38
4799.93
4861.5
4917.73
4968.35
5013.17
5052.07
5085
5112.02
5133.22
5148.78
5158.92
5163.95
5164.18
5160
5151.79
5139.98
5124.97
5107.14
5086.86
5064.42
5040.05
5013.91
4986.05
4956.46
4925.02
4891.57
4855.86
4817.64
4776.66
4732.69
4685.54
4635.13
4581.47
4524.68
4465.02
4402.86
4338.71
4273.17
4206.94
4140.76
4075.43
4011.72
3950.41
3892.22
3837.81
3787.73
3742.47
3702.39
3667.76
3638.73
3615.38
3597.67
3585.51
3578.74
3577.11
3580.37
3588.18
3600.19
3616
3635.2
3657.3
3681.83
3708.26
3736.04
3764.58
3793.3
3821.59
3848.87
3874.54
3898.08
3918.99
3936.84
3951.29
3962.09
3969.08
3972.22
3971.54
3967.16
3959.24
3947.95
3933.32
3915.14
3892.62
3863.85
3824.78
3767.35
3675.85
3520.21
3243.13
2735.36
1785.3
311.094
621.79
15000
14999.6
14999
14998
14996.4
14994.1
14990.7
14985.8
14979
14969.7
14957.2
14940.6
14918.9
14890.9
14855.3
14810.6
14755.1
14687
14604.5
14505.6
14388.2
14250.5
14090.5
13906.6
13697.2
13461.2
13197.8
12906.4
12587.2
12240.7
11868
11470.8
11051.2
10611.8
10155.6
9686.28
9207.46
8723.17
8237.51
7754.62
7278.58
6813.26
6362.32
5929.07
5516.44
5126.9
4762.47
4424.66
4114.5
3832.55
3578.9
3353.23
3154.86
2982.79
2835.75
2712.26
2610.71
2529.35
2466.44
2420.18
2388.85
2370.78
2364.39
2368.22
2380.95
2401.39
2428.48
2461.31
2499.12
2541.25
2587.17
2636.45
2688.75
2743.83
2801.49
2861.59
2924.05
2988.8
3055.8
3125.04
3196.5
3270.16
3345.98
3423.93
3503.93
3585.85
3669.55
3754.81
3841.36
3928.87
4016.94
4105.11
4192.87
4279.67
4364.92
4448.01
4528.32
4605.28
4678.31
4746.9
4810.61
4869.05
4921.91
4968.96
5010.05
5045.12
5074.16
5097.27
5114.57
5126.3
5132.71
5134.12
5130.9
5123.43
5112.11
5097.36
5079.57
5059.11
5036.28
5011.35
4984.48
4955.77
4925.23
4892.8
4858.32
4821.62
4782.46
4740.63
4695.91
4648.17
4597.32
4543.39
4486.5
4426.9
4364.97
4301.2
4236.16
4170.54
4105.05
4040.46
3977.53
3917.03
3859.63
3806
3756.67
3712.12
3672.71
3638.69
3610.23
3587.4
3570.16
3558.43
3552.03
3550.74
3554.28
3562.31
3574.47
3590.36
3609.54
3631.53
3655.83
3681.9
3709.18
3737.09
3765.04
3792.44
3818.68
3843.23
3865.56
3885.2
3901.76
3914.93
3924.5
3930.33
3932.42
3930.82
3925.68
3917.17
3905.46
3890.6
3872.36
3849.95
3821.47
3782.92
3726.31
3636.11
3482.53
3208.48
2703.8
1752.34
310.624
619.46
15000
14999.6
14999
14998
14996.5
14994.1
14990.7
14985.9
14979.1
14969.9
14957.4
14940.9
14919.3
14891.5
14856.1
14811.6
14756.4
14688.7
14606.6
14508.2
14391.5
14254.4
14095.2
13912.2
13703.8
13468.8
13206.4
12916.1
12598.1
12252.7
11881.1
11484.9
11066.2
10627.5
10171.9
9702.9
9224.16
8739.66
8253.5
7769.79
7292.59
6825.81
6373.09
5937.76
5522.76
5130.61
4763.34
4422.52
4109.19
3823.97
3566.99
3337.96
3136.26
2960.9
2810.67
2684.1
2579.61
2495.49
2429.98
2381.33
2347.79
2327.71
2319.49
2321.68
2332.92
2352.01
2377.88
2409.59
2446.34
2487.46
2532.4
2580.71
2632.04
2686.12
2742.75
2801.8
2863.18
2926.82
2992.72
3060.85
3131.22
3203.83
3278.67
3355.72
3434.92
3516.17
3599.34
3684.24
3770.61
3858.15
3946.45
4035.09
4123.55
4211.28
4297.68
4382.15
4464.06
4542.8
4617.79
4688.49
4754.41
4815.15
4870.35
4919.76
4963.19
5000.54
5031.77
5056.94
5076.17
5089.64
5097.6
5100.35
5098.24
5091.63
5080.93
5066.55
5048.89
5028.31
5005.16
4979.69
4952.13
4922.58
4891.1
4857.65
4822.14
4784.41
4744.29
4701.57
4656.1
4607.75
4556.45
4502.24
4445.25
4385.74
4324.06
4260.68
4196.18
4131.21
4066.46
4002.67
3940.59
3880.94
3824.41
3771.62
3723.1
3679.32
3640.62
3607.27
3579.43
3557.15
3540.42
3529.13
3523.13
3522.18
3525.98
3534.22
3546.52
3562.45
3581.57
3603.39
3627.39
3653.03
3679.74
3706.94
3734.03
3760.43
3785.56
3808.89
3829.91
3848.2
3863.4
3875.22
3883.49
3888.11
3889.11
3886.57
3880.64
3871.53
3859.4
3844.3
3826
3803.71
3775.54
3737.52
3681.75
3592.85
3441.26
3170.03
2668.63
1718.48
310.197
617.23
15000
14999.6
14999
14998
14996.5
14994.1
14990.8
14985.9
14979.2
14970
14957.6
14941.2
14919.7
14892
14856.7
14812.5
14757.5
14690.2
14608.5
14510.5
14394.4
14258
14099.5
13917.3
13709.8
13475.8
13214.5
12925.3
12608.4
12264.2
11893.8
11498.7
11080.9
10643.1
10188.2
9719.65
9241.14
8756.6
8270.1
7785.73
7307.55
6839.45
6385.08
5947.77
5530.5
5135.8
4765.73
4421.89
4105.38
3816.84
3556.44
3323.95
3118.78
2939.98
2786.37
2656.53
2548.89
2461.77
2393.44
2342.15
2306.17
2283.83
2273.56
2273.87
2283.4
2300.93
2325.38
2355.77
2391.3
2431.26
2475.07
2522.28
2572.51
2625.48
2680.98
2738.88
2799.08
2861.53
2926.22
2993.15
3062.34
3133.8
3207.55
3283.58
3361.86
3442.33
3524.85
3609.26
3695.34
3782.78
3871.21
3960.2
4049.25
4137.82
4225.3
4311.09
4394.56
4475.06
4552.01
4624.83
4693.02
4756.12
4813.76
4865.63
4911.52
4951.28
4984.85
5012.24
5033.56
5048.94
5058.62
5062.87
5062.01
5056.41
5046.47
5032.58
5015.15
4994.56
4971.15
4945.22
4917
4886.64
4854.24
4819.79
4783.25
4744.5
4703.4
4659.8
4613.56
4564.58
4512.82
4458.33
4401.26
4341.83
4280.42
4217.47
4153.54
4089.25
4025.28
3962.34
3901.16
3842.42
3786.81
3734.91
3687.25
3644.29
3606.36
3573.72
3546.52
3524.83
3508.63
3497.81
3492.21
3491.59
3495.66
3504.09
3516.48
3532.41
3551.42
3573.01
3596.65
3621.79
3647.85
3674.25
3700.39
3725.71
3749.63
3771.66
3791.3
3808.17
3821.93
3832.35
3839.27
3842.65
3842.53
3839.02
3832.3
3822.58
3810.02
3794.68
3776.32
3754.15
3726.3
3688.81
3633.88
3546.29
3396.72
3128.69
2633.62
1708.34
310.028
617.206
15000
14999.6
14999
14998
14996.5
14994.2
14990.8
14986
14979.3
14970.1
14957.7
14941.4
14919.9
14892.3
14857.2
14813.2
14758.5
14691.4
14610
14512.5
14396.8
14261
14103.2
13921.8
13715.1
13482.1
13221.8
12933.8
12618
12275
11905.8
11511.8
11095.1
10658.2
10204.1
9736.16
9258.04
8773.63
8286.97
7802.13
7323.15
6853.91
6398.05
5958.94
5539.53
5142.4
4769.62
4422.83
4103.18
3811.32
3547.49
3311.49
3102.76
2920.41
2763.29
2630.02
2519.05
2428.75
2357.39
2303.24
2264.58
2239.76
2227.19
2225.39
2232.99
2248.75
2271.57
2300.45
2334.57
2373.2
2415.73
2461.7
2510.7
2562.45
2616.72
2673.36
2732.29
2793.46
2856.85
2922.48
2990.39
3060.6
3133.16
3208.06
3285.31
3364.85
3446.6
3530.4
3616.04
3703.24
3791.66
3880.87
3970.4
4059.69
4148.16
4235.19
4320.13
4402.36
4481.23
4556.17
4626.64
4692.14
4752.27
4806.69
4855.13
4897.43
4933.47
4963.24
4986.79
5004.25
5015.8
5021.71
5022.28
5017.85
5008.81
4995.55
4978.48
4957.98
4934.41
4908.09
4879.29
4848.18
4814.89
4779.48
4741.92
4702.16
4660.09
4615.61
4568.6
4519
4466.79
4412.03
4354.86
4295.54
4234.41
4171.91
4108.57
4045
3981.84
3919.79
3859.54
3801.77
3747.1
3696.14
3649.4
3607.29
3570.17
3538.27
3511.75
3490.67
3475.01
3464.67
3459.47
3459.18
3463.5
3472.08
3484.53
3500.42
3519.27
3540.56
3563.77
3588.33
3613.66
3639.17
3664.28
3688.43
3711.08
3731.72
3749.91
3765.3
3777.57
3786.54
3792.09
3794.2
3792.94
3788.46
3780.94
3770.6
3757.61
3742.03
3723.61
3701.56
3674.01
3637.06
3582.96
3496.71
3349.36
3085.45
2599.05
1688.66
309.811
615.098
15000
14999.6
14999
14998
14996.5
14994.2
14990.8
14986
14979.3
14970.2
14957.8
14941.5
14920.1
14892.6
14857.6
14813.7
14759.2
14692.3
14611.3
14514.1
14398.8
14263.5
14106.3
13925.6
13719.7
13487.6
13228.3
12941.3
12626.7
12284.8
11916.7
11523.9
11108.3
10672.5
10219.3
9752.09
9274.51
8790.4
8303.76
7818.65
7339.07
6868.9
6411.77
5971.04
5549.68
5150.28
4774.95
4425.34
4102.62
3807.52
3540.29
3300.78
3088.47
2902.51
2741.8
2604.98
2490.56
2396.9
2322.33
2265.13
2223.59
2196.07
2180.99
2176.85
2182.3
2196.07
2217.04
2244.22
2276.74
2313.85
2354.96
2399.53
2447.17
2497.57
2550.49
2605.79
2663.35
2723.14
2785.14
2849.39
2915.92
2984.79
3056.04
3129.7
3205.8
3284.3
3365.13
3448.17
3533.24
3620.06
3708.32
3797.61
3887.47
3977.35
4066.68
4154.84
4241.17
4325.03
4405.78
4482.8
4555.52
4623.44
4686.1
4743.12
4794.21
4839.13
4877.77
4910.04
4935.98
4955.67
4969.27
4977
4979.16
4976.06
4968.07
4955.58
4939
4918.72
4895.12
4868.52
4839.21
4807.43
4773.33
4736.99
4698.47
4657.72
4614.71
4569.36
4521.59
4471.37
4418.72
4363.69
4306.45
4247.24
4186.4
4124.36
4061.63
3998.8
3936.48
3875.35
3816.06
3759.27
3705.6
3655.61
3609.8
3568.59
3532.3
3501.17
3475.35
3454.9
3439.79
3429.92
3425.12
3425.14
3429.68
3438.39
3450.86
3466.65
3485.27
3506.21
3528.91
3552.81
3577.33
3601.88
3625.88
3648.79
3670.08
3689.27
3705.97
3719.82
3730.57
3738.07
3742.22
3743.04
3740.64
3735.18
3726.86
3715.9
3702.49
3686.66
3668.17
3646.23
3618.96
3582.51
3529.25
3444.36
3299.37
3039.87
2562.53
1672.03
309.532
611.568
15000
14999.6
14999
14998
14996.5
14994.2
14990.8
14986
14979.3
14970.2
14957.9
14941.6
14920.3
14892.8
14857.9
14814
14759.6
14693
14612.1
14515.3
14400.3
14265.5
14108.8
13928.7
13723.5
13492.2
13233.8
12947.8
12634.2
12293.5
11926.6
11534.9
11120.5
10685.7
10233.5
9767.17
9290.26
8806.61
8320.18
7834.99
7355.03
6884.14
6425.97
5983.84
5560.76
5159.3
4781.59
4429.33
4103.71
3805.48
3534.94
3291.97
3076.12
2886.55
2722.21
2581.78
2463.8
2366.68
2288.75
2228.32
2183.72
2153.31
2135.5
2128.82
2131.9
2143.46
2162.38
2187.65
2218.38
2253.81
2293.3
2336.33
2382.48
2431.4
2482.86
2536.7
2592.79
2651.11
2711.64
2774.42
2839.48
2906.91
2976.75
3049.07
3123.9
3201.23
3281.02
3363.16
3447.49
3533.79
3621.73
3710.95
3800.97
3891.3
3981.34
4070.49
4158.09
4243.49
4326.02
4405.06
4480.02
4550.33
4615.53
4675.19
4728.97
4776.62
4817.94
4852.84
4881.3
4903.36
4919.16
4928.88
4932.79
4931.18
4924.41
4912.86
4896.92
4877
4853.48
4826.72
4797.03
4764.66
4729.82
4692.64
4653.19
4611.52
4567.6
4521.4
4472.9
4422.09
4368.99
4313.71
4256.4
4197.31
4136.77
4075.2
4013.09
3951.01
3889.55
3829.34
3771.04
3715.26
3662.6
3613.61
3568.76
3528.45
3493.01
3462.67
3437.56
3417.74
3403.19
3393.79
3389.37
3389.68
3394.41
3403.2
3415.64
3431.28
3449.61
3470.12
3492.24
3515.41
3539.04
3562.55
3585.37
3606.97
3626.84
3644.54
3659.69
3671.97
3681.18
3687.18
3689.92
3689.46
3685.92
3679.48
3670.36
3658.79
3644.95
3628.87
3610.3
3588.43
3561.42
3525.45
3473
3389.48
3246.93
2991.85
2522.17
1642.75
309.195
608.661
15000
14999.6
14999
14998
14996.5
14994.2
14990.8
14986
14979.3
14970.2
14957.9
14941.6
14920.3
14892.9
14858
14814.2
14759.9
14693.4
14612.7
14516.1
14401.4
14266.9
14110.7
13931.1
13726.6
13495.9
13238.3
12953.3
12640.7
12301
11935.2
11544.7
11131.4
10697.8
10246.6
9781.21
9305.09
8822.04
8335.98
7850.91
7370.78
6899.41
6440.42
5997.14
5572.57
5169.28
4789.43
4434.73
4106.39
3805.19
3531.48
3285.18
3065.85
2872.72
2704.76
2560.71
2439.12
2338.45
2257.06
2193.28
2145.47
2111.98
2091.26
2081.84
2082.34
2091.49
2108.16
2131.31
2160.06
2193.62
2231.34
2272.67
2317.16
2364.48
2414.37
2466.63
2521.17
2577.93
2636.9
2698.11
2761.62
2827.52
2895.86
2966.73
3040.17
3116.21
3194.82
3275.93
3359.38
3444.99
3532.45
3621.42
3711.45
3802.06
3892.66
3982.65
4071.38
4158.19
4242.4
4323.38
4400.5
4473.17
4540.89
4603.2
4659.72
4710.14
4754.24
4791.87
4822.96
4847.54
4865.68
4877.55
4883.37
4883.42
4878.03
4867.57
4852.44
4833.03
4809.74
4782.94
4752.98
4720.14
4684.66
4646.71
4606.43
4563.88
4519.1
4472.1
4422.9
4371.51
4317.99
4262.46
4205.09
4146.12
4085.89
4024.79
3963.31
3901.98
3841.37
3782.11
3724.79
3670.03
3618.4
3570.41
3526.53
3487.14
3452.56
3423
3398.61
3379.42
3365.41
3356.47
3352.41
3352.97
3357.86
3366.69
3379.05
3394.47
3412.46
3432.46
3453.93
3476.29
3498.96
3521.36
3542.93
3563.17
3581.57
3597.73
3611.3
3622
3629.65
3634.14
3635.49
3633.75
3629.07
3621.67
3611.76
3599.58
3585.3
3568.95
3550.27
3528.46
3501.67
3466.14
3414.46
3332.3
3192.16
2941.4
2478.89
1606.26
308.808
606.39
15000
14999.6
14999
14998
14996.5
14994.2
14990.8
14986
14979.3
14970.2
14957.9
14941.6
14920.3
14892.9
14858
14814.3
14760.1
14693.6
14613.1
14516.6
14402.2
14267.9
14112.1
13932.9
13728.9
13498.9
13242
12957.8
12646.1
12307.5
11942.7
11553.3
11141.1
10708.6
10258.6
9794.15
9318.91
8836.58
8351.04
7866.26
7386.15
6914.51
6454.93
6010.75
5584.93
5180.07
4798.33
4441.42
4110.58
3806.63
3529.93
3280.44
3057.76
2861.16
2689.65
2542
2416.8
2312.54
2227.62
2160.4
2109.24
2072.54
2048.76
2036.42
2034.15
2040.7
2054.91
2075.76
2102.33
2133.84
2169.61
2209.07
2251.78
2297.36
2345.54
2396.14
2449.01
2504.12
2561.44
2621.01
2682.89
2747.16
2813.91
2883.23
2955.19
3029.82
3107.12
3187.05
3269.48
3354.24
3441.06
3529.61
3619.48
3710.18
3801.17
3891.84
3981.55
4069.63
4155.4
4238.21
4317.4
4392.38
4462.58
4527.53
4586.79
4640.02
4686.96
4727.4
4761.24
4788.44
4809.06
4823.22
4831.11
4832.98
4829.14
4819.94
4805.77
4787.03
4764.12
4737.44
4707.34
4674.14
4638.13
4599.52
4558.48
4515.13
4469.55
4421.8
4371.93
4319.99
4266.08
4210.31
4152.88
4094.04
4034.11
3973.48
3912.62
3852.04
3792.29
3733.95
3677.63
3623.88
3573.26
3526.28
3483.37
3444.9
3411.18
3382.4
3358.71
3340.14
3326.66
3318.15
3314.41
3315.2
3320.2
3329.02
3341.24
3356.39
3373.95
3393.39
3414.14
3435.62
3457.25
3478.48
3498.76
3517.57
3534.47
3549.06
3561.03
3570.13
3576.22
3579.22
3579.17
3576.17
3570.38
3562.02
3551.33
3538.54
3523.82
3507.19
3488.37
3466.57
3439.95
3404.82
3353.87
3273.02
3135.26
2888.69
2433.71
1580.48
308.614
601.282
15000
14999.6
14999
14998
14996.5
14994.2
14990.8
14986
14979.3
14970.2
14957.9
14941.5
14920.3
14892.8
14858
14814.3
14760.1
14693.7
14613.3
14516.9
14402.6
14268.7
14113.1
13934.3
13730.7
13501.3
13245
12961.5
12650.7
12313
11949.2
11560.9
11149.8
10718.4
10269.4
9806.03
9331.73
8850.2
8365.3
7880.95
7401.03
6929.32
6469.38
6024.53
5597.72
5191.54
4808.16
4449.29
4116.2
3809.72
3530.25
3277.76
3051.9
2851.97
2677
2525.82
2397.05
2289.21
2200.74
2130.01
2075.43
2035.41
2008.41
1993
1987.81
1991.57
2003.15
2021.5
2045.71
2074.99
2108.64
2146.09
2186.85
2230.56
2276.92
2325.72
2376.84
2430.2
2485.78
2543.63
2603.79
2666.37
2731.45
2799.13
2869.5
2942.61
3018.49
3097.11
3178.37
3262.13
3348.14
3436.11
3525.64
3616.26
3707.46
3798.63
3889.15
3978.34
4065.53
4150.04
4231.2
4308.39
4381.03
4448.57
4510.57
4566.63
4616.44
4659.75
4696.41
4726.35
4749.57
4766.16
4776.25
4780.1
4777.96
4770.18
4757.14
4739.23
4716.86
4690.44
4660.34
4626.92
4590.5
4551.33
4509.63
4465.56
4419.25
4370.81
4320.31
4267.86
4213.57
4157.59
4100.11
4041.39
3981.76
3921.59
3861.34
3801.49
3742.58
3685.17
3629.81
3577.07
3527.46
3481.46
3439.51
3401.95
3369.06
3341.06
3318.05
3300.08
3287.1
3278.98
3275.54
3276.52
3281.57
3290.33
3302.35
3317.16
3334.24
3353.04
3372.99
3393.53
3414.08
3434.08
3453
3470.36
3485.72
3498.73
3509.08
3516.59
3521.12
3522.65
3521.23
3516.98
3510.09
3500.8
3489.33
3475.94
3460.76
3443.82
3424.84
3403
3376.51
3341.7
3291.43
3211.87
3076.53
2834.66
2389.36
1556.99
308.488
595.826
15000
14999.6
14999
14998
14996.5
14994.2
14990.8
14986
14979.3
14970.1
14957.8
14941.5
14920.2
14892.8
14858
14814.3
14760.1
14693.7
14613.4
14517.1
14403
14269.2
14113.9
13935.4
13732.2
13503.3
13247.6
12964.8
12654.7
12317.8
11955
11567.6
11157.6
10727.3
10279.3
9817
9343.65
8862.99
8378.81
7895
7415.42
6943.81
6483.7
6038.39
5610.82
5203.57
4818.8
4458.24
4123.16
3814.4
3532.38
3277.11
3048.26
2845.17
2666.9
2512.29
2380.03
2268.66
2176.64
2102.39
2044.33
2000.91
1970.61
1952
1943.73
1944.56
1953.33
1969.02
1990.7
2017.57
2048.94
2084.2
2122.88
2164.57
2208.98
2255.89
2305.15
2356.67
2410.44
2466.49
2524.86
2585.66
2648.99
2714.94
2783.64
2855.13
2929.48
3006.66
3086.62
3169.23
3254.29
3341.5
3430.51
3520.88
3612.1
3703.6
3794.75
3884.89
3973.34
4059.4
4142.41
4221.71
4296.68
4366.77
4431.47
4490.35
4543.04
4589.26
4628.81
4661.57
4687.49
4706.61
4719.05
4725.01
4724.73
4718.53
4706.77
4689.85
4668.17
4642.16
4612.22
4578.72
4542.01
4502.4
4460.13
4415.43
4368.47
4319.39
4268.33
4215.4
4160.76
4104.57
4047.05
3988.46
3929.11
3869.39
3809.73
3750.59
3692.5
3635.98
3581.58