<?xml version="1.0"?>
<VTKFile type="PolyData" version="0.1" byte_order="LittleEndian">
  <PolyData>
    <Piece NumberOfPoints="50000" NumberOfVerts="50000" NumberOfLines="0" NumberOfStrips="0" NumberOfPolys="0">
      <Points>
        <DataArray type="Float32" NumberOfComponents="3" format="ascii">
0.556484 0.011033 0
-0.529964 0.00343682 0
0.539504 -0.0044781 0
0.563273 -0.00378711 0
-0.461383 0.00816141 0
-0.387801 0.00241466 0
0.185137 -0.0368869 0
-0.476409 -0.000582252 0
0.163178 -0.0288858 0
-0.0384188 0.0119387 0
0.42329 -0.0183618 0
0.537058 0.00997036 0
-0.310982 0.00922186 0
-0.221348 -0.0347639 0
-0.579007 0.00260594 0
0.436522 0.0163048 0
-0.0815492 -0.00361791 0
0.558787 0.00146215 0
0.211518 0.0012756 0
-0.530749 0.00459957 0
-0.555923 0.00714224 0
0.484373 0.00863045 0
-0.548908 0.00298548 0
0.544587 -0.000858494 0
0.346973 -0.0184766 0
0.405993 0.0172778 0
-0.544626 -0.0111252 0
0.559325 -0.00557433 0
-0.39032 0.0322144 0
-0.572847 0.0121282 0
-0.431613 0.0162598 0
-0.401581 -0.0236654 0
0.553944 0.000275111 0
0.557818 -0.0022837 0
0.105752 0.00648379 0
0.567127 -0.0031184 0
0.17181 0.00138488 0
-0.567934 0.00300457 0
-0.532046 -0.00788762 0
-0.591201 -0.00405848 0
0.409267 0.0176136 0
0.432473 0.00784794 0
-0.542504 -0.00380113 0
0.55043 0.000145534 0
0.57065 0.00101697 0
-0.558759 0.0116652 0
0.54229 0.00606368 0
0.27807 -0.0215967 0
0.535509 -0.000340999 0
0.548226 -0.000576552 0
0.229878 0.0293694 0
-0.547666 -0.00195251 0
-0.381291 0.0126154 0
0.541042 0.00326775 0
-0.539292 0.00293508 0
-0.574971 0.00314408 0
0.557222 -0.00258593 0
0.224863 0.0155621 0
0.41691 0.00985448 0
0.575344 -0.00762623 0
0.470007 0.00595568 0
0.563116 0.00290205 0
0.123837 -0.0455895 0
0.575377 -0.00323143 0
-0.186417 0.0230535 0
-0.537586 0.00157474 0
0.546821 -0.00201817 0
0.561942 -0.00163378 0
0.58133 0.00490877 0
0.402255 0.000673789 0
-0.544113 0.00412812 0
0.545941 0.00448077 0
0.297784 0.000995476 0
0.304881 0.00885716 0
0.259829 0.00655211 0
-0.551867 -0.00388071 0
0.47779 0.0167524 0
-0.524214 0.00561973 0
0.421239 0.00893197 0
-0.573747 0.00188689 0
-0.290091 -0.04752 0
-0.561979 0.00574915 0
0.516089 0.00639882 0
-0.546166 0.000546974 0
0.574634 -0.00730977 0
-0.547788 0.00424778 0
0.57568 -0.0071749 0
-0.247054 -0.0123217 0
-0.239135 0.0314777 0
-0.552235 -0.0102355 0
0.540956 0.0085635 0
-0.540228 -0.00121419 0
0.543934 -0.00315113 0
-0.373099 0.0267108 0
-0.0569807 -0.0308371 0
-0.486313 0.00691745 0
0.542645 0.0114024 0
-0.557124 0.00415932 0
-0.587626 0.0098331 0
-0.583012 -0.00178053 0
-0.489075 -0.0108568 0
-0.542216 -0.00815217 0
0.579562 -0.00152002 0
-0.235752 -0.0290404 0
0.583666 -0.00133338 0
0.478073 0.0169937 0
0.351105 0.00867157 0
0.0277071 0.0104498 0
0.536599 0.00568779 0
-0.549483 -0.00674373 0
-0.415104 0.0267945 0
-0.557637 0.00403677 0
-0.476276 0.0141809 0
415.584 601.165 0
0.365884 0.00962582 0
-0.54966 0.00458429 0
-0.569933 0.00577238 0
10.6853 14.6173 0
-0.553483 0.00194507 0
-0.0289254 -0.0125277 0
0.559533 -0.00255312 0
-0.53385 -0.00556773 0
0.377486 -0.00538044 0
-0.510853 0.0098532 0
0.549324 -0.00151846 0
0.533855 -0.00187844 0
0.175337 0.0325722 0
0.564504 0.00554925 0
-0.495572 -0.00990068 0
0.425941 -0.00178608 0
0.567512 -0.00495097 0
0.563033 -0.0011351 0
-0.585393 0.00067327 0
-0.488473 0.00519987 0
0.576474 -0.00306294 0
0.547891 -0.00199196 0
0.528491 -0.00440972 0
-0.0888415 0.00388048 0
0.44206 -0.0200567 0
0.429996 -0.0169311 0
0.441872 -0.0203708 0
0.524447 0.0127643 0
0.566271 -0.00524722 0
-0.132528 -0.0197427 0
-0.567388 0.00891929 0
0.376348 -0.0315713 0
-0.36401 0.0272222 0
-0.559789 0.00237313 0
-0.401022 -0.027886 0
-0.561514 0.00470932 0
0.427533 0.0096958 0
0.544198 0.00258093 0
-0.17123 -0.0167534 0
0.443368 -0.0147278 0
0.440927 0.0110363 0
0.53954 0.00480717 0
0.369604 -0.0138836 0
-0.550165 0.00345805 0
-0.238121 -0.00870587 0
0.564644 -0.00109296 0
0.377233 -0.00279391 0
-0.499246 -0.00449632 0
-0.540557 0.00309068 0
-0.561996 0.00318388 0
-0.146076 0.0133244 0
0.435073 -0.00925643 0
0.491793 -0.0082507 0
0.498235 0.00455499 0
0.416032 0.0103562 0
-0.231667 0.000331872 0
0.581635 -0.00733664 0
-0.538853 0.00388935 0
-0.128623 -0.00861945 0
0.561958 0.0054107 0
-0.10368 -0.00525784 0
-0.435705 0.0212438 0
-0.540306 0.00302956 0
-0.329508 -0.0156961 0
-0.54767 -0.00362145 0
-0.550016 -0.00949791 0
0.538873 -0.000697746 0
-0.55639 0.00844905 0
-0.547963 0.00706057 0
0.55623 0.00679541 0
0.542806 -0.00183758 0
0.419971 -0.0244381 0
0.582875 -0.00530961 0
0.576853 2.17723e-05 0
0.559166 -0.00568685 0
0.0621081 0.0404109 0
0.568733 -0.00564175 0
0.460723 -0.0131449 0
-0.37226 -0.0258579 0
0.512869 0.0083166 0
-0.509454 0.0083402 0
0.538721 0.00182403 0
-0.454143 0.0157468 0
-0.483706 0.00686679 0
-0.542679 0.00488299 0
0.545418 0.00623711 0
-0.363122 0.0257091 0
0.575409 0.00317787 0
0.49909 -0.00811055 0
-0.114714 -0.0103062 0
0.582606 -0.00747686 0
-0.534622 -0.0114803 0
0.0755767 0.0658213 0
0.230711 -0.00972603 0
-0.484601 0.0143228 0
-0.341857 -0.0145519 0
0.533469 0.000214307 0
-0.2389 -0.0295216 0
0.502874 -0.00562398 0
-0.468368 0.0147575 0
-0.321589 -0.0223615 0
-0.561923 0.00794361 0
-0.554435 0.0102027 0
0.552951 -0.000993053 0
-0.570198 -0.00241971 0
-0.0677325 0.0285634 0
-0.438883 0.0157405 0
-0.568905 0.00456572 0
-0.52855 -0.00933793 0
0.577751 -0.00466972 0
0.204589 0.0336504 0
-0.540614 0.00374519 0
0.580942 0.000991148 0
0.557082 -0.00174984 0
-0.480869 0.0130193 0
-0.566398 -0.0012856 0
-0.557374 -0.00576052 0
0.541816 0.00528235 0
0.282614 0.0321485 0
-0.0867895 0.0202545 0
-0.577015 0.00566149 0
-0.497048 0.00766651 0
0.426498 -0.0248124 0
-0.437772 -0.00667464 0
-0.551531 0.00412768 0
0.337514 -0.00460864 0
0.570231 -0.000634953 0
-0.5062 -0.00985225 0
-0.557755 0.00419014 0
-0.323427 -0.0199253 0
0.278325 0.00891421 0
0.498025 0.00522083 0
-0.526933 0.00924585 0
0.557572 -0.00174463 0
0.574346 0.00310273 0
0.329318 0.016824 0
0.343445 0.00550762 0
-0.524651 0.00650873 0
0.538866 -0.00464401 0
-0.248913 -0.0135428 0
-0.507653 0.0107631 0
0.539558 -0.000976698 0
-0.492056 0.0104831 0
0.477889 0.011889 0
0.206988 0.0318755 0
0.298428 -0.000199262 0
0.573995 0.000675293 0
-0.524456 0.00626972 0
0.104478 -0.0119686 0
0.0519691 -0.0198942 0
-0.374384 0.00422621 0
-0.550584 0.000992815 0
-0.542368 0.00355582 0
-0.538385 -0.0024075 0
0.552646 -0.00201878 0
0.54853 -0.00169954 0
0.564992 -0.00190934 0
-0.555452 -0.00443455 0
0.362471 0.00369938 0
0.02963 0.0168443 0
-0.580284 0.00648019 0
-0.564294 0.00267957 0
0.536757 -0.00113946 0
-0.539338 0.00367144 0
0.533293 0.0084329 0
-0.547044 -0.00249328 0
-0.530766 -0.000690399 0
-0.246414 -0.0322583 0
-0.555809 0.00292115 0
0.524172 -0.00361141 0
-0.472733 0.0143272 0
-0.532439 -0.00495593 0
-0.211807 0.0269981 0
-0.554093 0.00404435 0
-0.562993 0.00477406 0
0.472715 -0.00485532 0
-0.198145 0.00886169 0
0.551897 -0.00190011 0
0.564029 -0.00462451 0
0.359741 0.0186645 0
0.573141 0.00399746 0
0.543749 0.0079674 0
0.570969 0.00525062 0
-0.381603 0.0317237 0
-0.520571 0.00235816 0
-0.578931 0.000789352 0
0.585438 0.000669233 0
-0.0789491 0.00967365 0
0.550101 -0.00304203 0
0.536739 0.00394346 0
0.566509 -0.00163278 0
0.0966803 0.0163276 0
-0.292736 0.0340704 0
0.477157 0.00686168 0
-0.0675599 2.56599e-05 0
-0.272396 0.0123975 0
-0.455592 0.0154451 0
0.551547 0.00856841 0
-0.403499 0.0195742 0
0.51081 -0.00799426 0
0.420865 -0.00713038 0
-0.576867 0.00819672 0
0.449212 -0.0208921 0
0.579314 -0.00779334 0
0.518048 -0.00475093 0
0.553403 0.00961685 0
-0.562809 0.00694361 0
-0.124018 0.0202705 0
0.565074 0.0022845 0
0.562329 -0.00190337 0
0.259515 0.0337195 0
-0.536943 -0.00108369 0
-0.527036 0.00646111 0
0.578969 8.83819e-05 0
-0.53889 -0.00467437 0
0.558141 0.00282867 0
0.562228 -0.00396911 0
0.269295 -0.0329323 0
0.538799 0.00428132 0
-0.552819 0.00410762 0
-0.473246 -0.0013447 0
-0.318019 -0.00400811 0
0.0440915 -0.0112449 0
0.0667729 -0.04118 0
-0.507152 0.00417216 0
0.250495 -0.0365151 0
-0.0598102 0.0556303 0
-0.570683 0.0079447 0
-0.408294 0.0183203 0
-0.557193 0.00568424 0
-0.23155 -0.0192755 0
0.561768 0.00887904 0
-0.396538 0.020643 0
-0.563822 -0.000514687 0
-92.6923 383.394 0
0.560612 -0.00784979 0
0.559247 -0.00211858 0
-0.46003 0.0190531 0
0.543537 0.00350411 0
0.515779 -0.00196327 0
-825.038 -1475.45 0
0.171283 0.0196963 0
-0.558103 0.00469415 0
-0.464493 -0.00389219 0
0.555401 0.00431313 0
5.80828 -11.9671 0
0.525762 0.00633913 0
-0.546143 -0.00871228 0
-0.349219 -0.000123091 0
-0.554639 -0.00495008 0
-0.565559 0.00886339 0
0.551186 -0.00195866 0
-0.574655 -0.00242902 0
-0.49833 0.0121868 0
0.432719 0.016816 0
-0.541491 -0.000359302 0
-0.451591 0.0190728 0
-0.500792 0.010865 0
0.557024 0.00527191 0
0.502203 -0.0101725 0
-0.333857 0.0258231 0
0.572478 -0.0034327 0
-0.558316 -0.00820756 0
-0.519848 -0.00547499 0
-0.564394 0.00132532 0
0.0483482 -0.0436241 0
-0.543321 -0.00778367 0
0.549093 0.00530461 0
-0.554027 0.00464244 0
-0.550844 0.00232902 0
-0.136345 0.0204099 0
0.35978 0.0184063 0
-0.18084 0.0499143 0
0.118128 0.028029 0
-0.558872 0.0049801 0
-0.101638 0.0045231 0
-0.55982 -0.00174444 0
-0.562787 0.00716566 0
0.536806 -0.00860529 0
0.473164 0.0125054 0
-0.526763 0.00841713 0
0.49867 0.00617601 0
0.495629 0.00136027 0
-0.537108 0.003798 0
-0.296974 -0.0102389 0
0.392188 -0.0243053 0
-0.537591 0.000753876 0
0.474889 -0.0128043 0
0.21709 -0.0071167 0
-0.55289 -0.0017892 0
0.515841 -0.00135669 0
0.542663 -0.00372046 0
0.550865 -0.0070463 0
0.561277 -0.00267375 0
0.570906 -0.000476866 0
0.540791 0.00896854 0
-0.556293 0.00341573 0
0.399387 0.0128813 0
-0.459985 -0.00738494 0
0.262373 0.0364877 0
-0.523791 0.00335615 0
-0.187657 -0.00816441 0
-0.434731 0.0158044 0
0.157992 -0.0198275 0
-0.567896 0.0049907 0
0.54169 -0.00198991 0
-0.153672 0.0404346 0
0.193879 0.0210455 0
-0.575553 0.00426753 0
0.545524 0.00207432 0
0.562485 -0.00145184 0
0.537557 0.0114255 0
0.574359 -0.00696375 0
-0.548755 0.0040911 0
-0.56611 0.00307658 0
0.558459 -0.00260057 0
-0.390963 0.0223925 0
[...]
      <PointData Scalars="T">
        <DataArray type="Float32" Name="T" format="ascii" NumberOfComponents="1">
320.571
488.773
318.905
318.905
488.773
488.773
318.905
504.035
318.905
488.773
318.905
320.571
488.773
504.035
488.773
320.571
504.035
321.822
312.565
488.773
488.773
320.571
488.773
318.905
318.905
320.571
504.035
318.905
488.773
488.773
488.773
504.035
329.591
318.905
320.571
318.905
314.418
488.773
504.035
504.035
320.571
320.571
504.035
340.573
305.856
488.773
320.571
318.905
318.905
318.905
320.571
504.035
488.773
320.571
488.773
488.773
318.905
320.571
320.571
318.905
320.571
320.571
318.905
318.905
488.773
1228.32
318.905
318.905
320.571
312.832
488.773
320.571
306.452
320.571
320.571
504.035
320.571
488.773
320.571
1086.23
504.035
488.773
320.571
1067.78
318.905
488.773
318.905
504.035
488.773
504.035
320.571
504.035
318.905
488.773
504.035
488.773
320.571
488.773
488.773
504.035
504.035
504.035
318.905
504.035
318.905
320.571
320.571
320.571
320.571
504.035
488.773
488.773
488.773
320.571
320.571
488.773
488.773
320.571
488.773
504.035
318.905
504.035
318.905
488.773
318.905
318.905
320.571
320.571
504.035
318.905
318.905
318.905
1295.66
488.773
318.905
318.905
318.905
488.773
318.905
318.905
318.905
320.571
318.905
504.035
488.773
318.905
488.773
488.773
504.035
488.773
320.571
320.571
504.035
318.905
320.571
320.571
318.905
488.773
504.035
318.905
318.905
504.035
488.773
488.773
488.773
318.905
318.905
320.571
320.571
1105.06
318.905
488.773
504.035
320.571
504.035
488.773
488.773
504.035
504.035
504.035
318.905
488.773
488.773
320.571
318.905
318.905
318.905
351.475
318.905
320.571
318.905
318.905
504.035
320.571
488.773
350.583
488.773
488.773
488.773
320.571
488.773
320.571
318.905
504.035
318.905
504.035
320.571
318.905
488.773
504.035
338.408
504.035
318.905
488.773
504.035
488.773
488.773
318.905
504.035
488.773
488.773
488.773
504.035
318.905
320.571
488.773
306.452
318.905
488.773
504.035
504.035
320.571
320.571
488.773
488.773
488.773
318.905
504.035
488.773
318.905
318.905
504.035
488.773
504.035
320.571
320.571
488.773
318.905
320.571
320.571
320.571
488.773
318.905
504.035
488.773
318.905
488.773
320.571
320.571
318.905
312.832
488.773
318.905
318.905
488.773
1088.3
488.773
504.035
318.905
318.905
318.905
504.035
320.571
320.571
488.773
488.773
318.905
488.773
320.571
504.035
504.035
504.035
488.773
318.905
488.773
504.035
488.773
488.773
488.773
318.905
488.773
318.905
318.905
320.571
320.571
320.571
320.571
488.773
488.773
1140.98
313.242
488.773
318.905
320.571
318.905
320.571
488.773
320.571
1066.54
488.773
488.773
320.571
488.773
318.905
318.905
488.773
318.905
318.905
318.905
320.571
488.773
488.773
320.571
318.905
320.571
504.035
488.773
346.393
504.035
320.571
318.905
318.905
320.571
488.773
504.035
504.035
318.905
318.905
488.773
318.905
488.773
488.773
488.773
488.773
504.035
320.571
488.773
504.035
488.773
318.905
318.905
488.773
320.571
318.905
504.035
320.571
488.773
504.035
320.571
318.905
320.571
504.035
504.035
504.035
488.773
318.905
504.035
488.773
320.571
504.035
488.773
488.773
320.571
318.905
488.773
318.905
504.035
504.035
1229.62
318.905
504.035
320.571
488.773
488.773
488.773
320.571
488.773
320.571
488.773
488.773
504.035
488.773
318.905
320.571
488.773
320.571
313.344
488.773
504.035
318.905
1089.33
318.905
318.905
504.035
318.905
318.905
318.905
318.905
318.905
320.571
488.773
320.571
504.035
320.571
488.773
504.035
488.773
318.905
488.773
318.905
488.773
320.571
488.773
320.571
318.905
320.571
318.905
488.773
488.773
318.905
488.773
320.571
488.773
320.571
1263.77
504.035
488.773
488.773
320.571
318.145
488.773
318.905
1010.96
504.035
504.035
488.773
504.035
320.571
318.905
504.035
320.571
504.035
504.035
318.905
318.905
504.035
488.773
1086.97
504.035
321.782
504.035
318.905
488.773
504.035
318.905
320.571
504.035
504.035
488.773
488.773
320.571
1110.22
318.905
318.905
320.571
488.773
488.773
488.773
318.905
320.571
504.035
504.035
504.035
488.773
314.418
320.571
318.905
310.923
488.773
320.571
320.571
306.487
488.773
320.571
318.905
504.035
318.905
488.773
488.773
488.773
504.035
504.035
504.035
504.035
504.035
318.905
318.905
318.905
320.571
318.905
320.571
320.571
504.035
320.571
488.773
318.905
320.571
488.773
320.571
488.773
488.773
488.773
504.035
320.571
318.905
320.571
318.905
318.905
318.905
488.773
320.571
320.571
1017.71
320.571
1034.39
488.773
504.035
318.905
318.905
488.773
488.773
504.035
504.035
504.035
320.571
320.571
320.571
320.571
504.035
488.773
320.571
488.773
337.204
320.571
504.035
488.773
318.905
488.773
320.571
320.571
504.035
320.571
504.035
318.905
1141.93
488.773
312.986
318.905
504.035
504.035
1164.9
488.773
488.773
320.571
318.905
318.905
318.52
320.571
504.035
504.035
504.035
504.035
488.773
320.571
318.905
488.773
320.571
504.035
305.873
320.571
318.905
488.773
320.571
504.035
1247.87
320.571
318.905
504.035
320.571
488.773
318.905
318.905
320.571
318.905
504.035
504.035
488.773
1285.64
320.571
504.035
318.905
504.035
504.035
320.571
318.905
504.035
504.035
488.773
488.773
318.905
318.905
488.773
504.035
504.035
320.571
318.905
488.773
488.773
318.905
318.905
320.571
320.571
488.773
504.035
504.035
504.035
504.035
320.571
488.773
320.571
320.571
504.035
488.773
318.905
318.905
504.035
488.773
318.905
504.035
504.035
488.773
318.905
504.035
488.773
320.571
488.773
488.773
318.905
320.571
488.773
320.571
318.905
488.773
320.571
318.905
488.773
488.773
318.905
318.905
318.905
320.571
320.571
504.035
504.035
488.773
488.773
320.571
488.773
504.035
326.86
320.571
488.773
488.773
488.773
318.905
320.571
320.571
320.571
488.773
318.905
318.905
1154.74
488.773
320.571
318.905
320.571
320.571
320.571
488.773
320.571
320.571
318.905
488.773
320.571
488.773
318.905
320.571
318.905
320.571
318.905
488.773
320.571
488.773
320.571
488.773
488.773
488.773
318.905
504.035
320.571
488.773
318.905
320.571
504.035
318.905
1172.15
504.035
504.035
488.773
488.773
488.773
318.905
318.905
318.905
318.905
318.905
1050.44
320.571
488.773
504.035
318.905
318.905
488.773
321.782
488.773
320.571
488.773
488.773
488.773
504.035
504.035
326.11
488.773
320.571
488.773
504.035
488.773
504.035
504.035
318.905
320.571
318.905
488.773
504.035
488.773
488.773
504.035
488.773
504.035
320.571
488.773
504.035
318.905
318.905
318.905
488.773
488.773
504.035
320.571
504.035
313.871
488.773
504.035
504.035
320.571
318.905
320.571
349.913
318.905
488.773
488.773
318.905
488.773
320.571
488.773
320.571
488.773
504.035
320.571
488.773
339.44
488.773
488.773
318.905
313.901
504.035
320.571
318.905
329.081
320.571
488.773
504.035
504.035
320.571
488.773
350.79
320.571
318.905
318.905
504.035
488.773
320.571
488.773
488.773
318.905
318.905
320.571
318.905
488.773
504.035
320.571
488.773
320.571
320.571
488.773
488.773
320.571
1283.48
318.905
318.905
488.773
488.773
318.905
325.959
488.773
504.035
504.035
320.571
336.639
504.035
488.773
488.773
504.035
504.035
318.905
488.773
318.905
488.773
318.905
318.905
1125.19
318.905
488.773
320.571
318.905
488.773
504.035
320.571
318.905
320.571
320.571
320.571
320.571
488.773
320.571
318.905
504.035
318.905
320.571
488.773
318.905
318.905
320.571
488.773
488.773
504.035
318.905
504.035
318.905
504.035
488.773
488.773
320.571
504.035
504.035
504.035
318.905
1155.48
488.773
318.905
320.571
504.035
504.035
318.905
488.773
318.905
318.905
504.035
320.571
504.035
320.571
318.905
320.571
318.905
320.571
320.571
488.773
320.571
318.905
318.905
488.773
318.905
504.035
488.773
504.035
318.905
320.571
488.773
504.035
488.773
318.905
488.773
488.773
318.905
318.905
320.571
320.571
488.773
488.773
318.905
488.773
320.571
488.773
504.035
339.44
504.035
318.905
488.773
504.035
488.773
488.773
488.773
504.035
504.035
488.773
488.773
320.571
488.773
318.905
318.905
318.905
318.905
320.571
488.773
318.905
488.773
320.571
488.773
320.571
320.571
504.035
320.571
488.773
318.905
320.571
318.905
504.035
318.905
488.773
320.55
504.035
504.035
320.571
504.035
488.773
488.773
504.035
318.905
320.571
320.571
320.571
504.035
318.905
504.035
318.905
318.905
320.571
320.571
320.571
318.905
318.905
504.035
320.571
320.571
504.035
488.773
318.905
488.773
306.487
488.773
504.035
488.773
1100.84
504.035
488.773
320.571
504.035
320.571
488.773
318.905
488.773
320.571
488.773
488.773
320.571
320.571
488.773
318.905
320.571
318.905
337.204
504.035
488.773
504.035
1285.55
318.905
488.773
318.905
488.773
488.773
318.905
318.905
488.773
320.571
318.905
318.905
318.905
488.773
318.905
320.571
488.773
488.773
488.773
504.035
488.773
318.905
488.773
318.905
504.035
320.571
318.905
320.571
488.773
504.035
504.035
488.773
318.905
320.571
504.035
318.905
309.355
504.035
504.035
318.905
488.773
321.935
318.905
320.571
504.035
488.773
488.773
488.773
320.571
1195.66
320.571
488.773
488.773
318.905
320.571
320.571
318.905
320.571
504.035
1165.35
504.035
488.773
318.905
320.571
320.571
320.571
320.571
320.571
504.035
488.773
488.773
488.773
504.035
488.773
488.773
318.905
318.905
318.905
318.905
318.905
488.773
318.905
488.773
326.86
504.035
488.773
320.571
488.773
1296.91
318.905
1261.43
318.905
318.905
318.905
318.905
320.571
320.571
318.905
320.571
504.035
306.76
488.773
320.571
320.571
318.905
504.035
318.905
504.035
320.571
320.571
320.571
320.571
488.773
318.905
488.773
320.571
318.905
318.905
1226.96
1224.94
1176.98
318.905
318.905
504.035
320.571
488.773
320.571
318.905
504.035
488.773
962.382
318.905
320.571
488.773
318.905
488.773
320.571
488.773
488.773
1101.71
488.773
318.905
318.905
504.035
488.773
488.773
488.773
318.905
504.035
320.571
488.773
320.571
320.571
488.773
488.773
320.571
488.773
318.905
318.905
318.905
488.773
336.353
318.905
504.035
488.773
318.905
488.773
318.905
488.773
488.773
318.905
504.035
504.035
318.905
318.905
320.571
318.905
320.571
504.035
320.571
320.571
488.773
488.773
318.905
488.773
320.571
305.856
1100.84
488.773
320.571
1228.58
1020.39
309.803
318.905
504.035
488.773
318.905
488.773
488.773
504.035
504.035
488.773
318.905
318.905
488.773
488.773
318.905
504.035
318.905
320.571
320.571
488.773
488.773
318.905
1031.51
320.571
488.773
320.571
318.905
488.773
318.905
318.905
504.035
488.773
504.035
504.035
488.773
488.773
488.773
488.773
320.571
318.905
318.905
488.773
318.905
488.773
488.773
318.905
488.773
488.773
320.571
488.773
504.035
318.905
504.035
504.035
320.571
488.773
320.571
320.571
318.905
318.905
488.773
320.571
335.55
488.773
488.773
320.571
488.773
488.773
318.905
318.905
318.905
504.035
318.905
488.773
348.716
318.905
488.773
488.773
488.773
318.905
318.905
488.773
488.773
488.773
504.035
320.571
504.035
318.905
504.035
504.035
318.905
320.571
318.905
504.035
320.571
318.905
320.571
1116.9
318.905
1171.28
504.035
488.773
488.773
504.035
504.035
504.035
320.571
320.571
504.035
488.773
488.773
318.905
488.773
488.773
488.773
504.035
504.035
318.905
318.905
320.571
488.773
320.571
320.571
318.905
504.035
318.905
320.571
320.571
321.516
320.571
488.773
1157.62
1240.08
488.773
488.773
318.905
504.035
504.035
320.571
488.773
504.035
488.773
1086.1
488.773
488.773
504.035
318.905
504.035
504.035
488.773
504.035
488.773
318.905
504.035
488.773
318.905
318.905
318.905
504.035
504.035
488.773
320.571
488.773
504.035
355.067
488.773
488.773
488.773
320.571
488.773
320.571
320.571
318.905
504.035
318.905
335.892
504.035
1195.66
318.905
320.571
504.035
488.773
488.773
318.905
488.773
504.035
488.773
320.571
320.571
318.905
320.571
504.035
488.773
488.773
318.905
320.571
488.773
320.571
320.571
504.035
504.035
504.035
320.571
320.571
320.571
488.773
320.571
1155.48
320.571
488.773
488.773
488.773
320.571
318.905
318.905
318.905
504.035
318.905
318.905
1113.13
488.773
320.571
320.571
318.905
488.773
318.905
488.773
318.905
320.571
318.905
313.901
504.035
488.773
504.035
320.571
318.905
318.905
318.905
488.773
320.571
488.773
320.571
318.905
320.571
504.035
318.905
488.773
320.571
320.571
318.905
504.035
318.905
318.905
318.905
318.905
320.571
1178.27
320.571
318.905
488.773
504.035
504.035
1036.19
488.773
488.773
1027.07
488.773
318.905
318.905
504.035
320.571
488.773
488.773
488.773
318.905
504.035
504.035
320.571
318.905
320.571
320.571
320.571
488.773
320.571
320.571
318.905
320.571
488.773
340.663
488.773
504.035
504.035
318.905
504.035
488.773
488.773
488.773
488.773
488.773
1156.14
488.773
320.571
320.571
318.905
488.773
318.905
488.773
318.905
320.571
488.773
307.6
318.905
320.571
320.571
318.905
1093.53
318.905
317.68
488.773
320.571
488.773
320.571
488.773
318.905
318.905
488.773
488.773
504.035
488.773
504.035
488.773
318.905
318.905
318.905
504.035
320.571
488.773
318.905
504.035
320.571
488.773
488.773
504.035
488.773
318.905
318.905
504.035
318.905
320.571
504.035
488.773
318.905
320.571
488.773
320.571
320.571
318.905
318.905
318.905
504.035
488.773
504.035
504.035
320.571
318.905
320.571
312.927
318.905
488.773
1209
504.035
318.905
316.636
318.905
318.905
488.773
318.905
320.571
320.571
320.571
318.905
320.571
488.773
488.773
488.773
320.571
488.773
488.773
318.905
311.168
318.905
305.75
488.773
320.571
488.773
320.571
320.571
488.773
318.905
504.035
504.035
504.035
318.905
504.035
504.035
488.773
504.035
504.035
488.773
504.035
504.035
1118.29
318.905
488.773
488.773
320.571
320.571
318.905
318.905
320.571
488.773
488.773
320.571
504.035
504.035
320.571
488.773
504.035
320.571
320.571
318.905
488.773
488.773
318.905
488.773
488.773
318.905
504.035
311.814
318.905
318.905
318.905
488.773
488.773
488.773
318.905
488.773
488.773
488.773
488.773
504.035
488.773
320.571
504.035
488.773
488.773
320.571
488.773
318.905
488.773
1102.7
320.571
488.773
504.035
318.905
318.905
504.035
504.035
1186.97
318.905
1074.12
488.773
1020.39
504.035
488.773
504.035
504.035
320.571
318.905
504.035
488.773
318.905
320.571
318.905
504.035
318.905
318.905
320.571
320.571
488.773
504.035
488.773
488.773
320.571
488.773
320.571
488.773
504.035
504.035
318.905
307.611
504.035
488.773
318.905
1102.7
320.571
318.905
320.571
318.905
318.905
320.571
488.773
504.035
504.035
488.773
318.905
318.905
504.035
318.905
504.035
488.773
488.773
504.035
488.773
320.571
318.905
488.773
504.035
320.571
320.571
488.773
318.905
488.773
318.905
318.905
318.905
488.773
320.571
318.905
318.905
320.571
504.035
307.344
504.035
504.035
318.905
318.905
504.035
488.773
320.571
318.905
318.905
504.035
504.035
488.773
320.571
320.571
504.035
320.571
318.905
1154.58
318.905
320.571
488.773
504.035
504.035
488.773
488.773
488.773
488.773
488.773
320.571
504.035
312.832
504.035
504.035
320.571
488.773
488.773
488.773
504.035
318.905
488.773
504.035
320.571
488.773
504.035
488.773
320.571
318.905
320.571
318.905
504.035
504.035
488.773
504.035
488.773
488.773
504.035
488.773
488.773
318.905
320.571
320.571
359.053
329.591
504.035
504.035
320.571
320.571
504.035
504.035
488.773
318.905
488.773
488.773
488.773
318.905
488.773
318.905
320.571
321.456
318.905
488.773
320.571
488.773
488.773
504.035
320.571
488.773
320.571
314.418
320.571
318.905
488.773
504.035
318.905
318.905
313.344
320.571
320.571
318.905
504.035
318.905
318.905
488.773
1215.3
488.773
318.905
318.905
318.905
488.773
488.773
488.773
320.571
488.773
320.571
1012.92
320.571
318.905
318.905
318.905
488.773
320.571
504.035
320.571
318.905
320.571
488.773
504.035
504.035
488.773
504.035
504.035
320.571
488.773
504.035
318.905
318.905
320.571
488.773
488.773
504.035
504.035
320.571
488.773
504.035
504.035
320.571
488.773
1209
318.905
488.773
320.571
504.035
318.905
488.773
504.035
320.571
488.773
318.905
504.035
488.773
318.905
320.571
504.035
488.773
488.773
318.905
488.773
504.035
318.905
504.035
320.571
320.571
1270.16
320.571
318.905
318.905
318.905
343.32
504.035
318.905
320.571
1113.37
320.571
488.773
504.035
504.035
488.773
504.035
318.905
504.035
320.571
320.571
320.571
318.905
320.571
318.905
318.905
320.571
504.035
320.571
320.571
504.035
318.905
318.905
320.571
311.168
504.035
318.905
318.905
504.035
320.571
504.035
504.035
318.905
488.773
488.773
318.905
488.773
320.571
339.44
320.571
318.905
318.905
318.905
318.905
318.905
317.8
488.773
504.035
1250.7
320.571
318.905
488.773
318.905
318.905
504.035
318.905
320.571
318.905
318.905
318.905
488.773
320.571
318.905
488.773
318.905
504.035
320.571
318.905
320.571
488.773
504.035
320.571
488.773
488.773
318.905
318.905
318.905
488.773
320.571
306.146
488.773
488.773
318.905
318.905
320.571
504.035
504.035
504.035
318.905
320.571
318.905
504.035
488.773
318.905
318.905
320.571
320.571
318.905
488.773
320.571
504.035
320.571
488.773
488.773
320.571
320.571
488.773
1010.96
320.571
504.035
488.773
1082.65
1088.3
488.773
488.773
504.035
318.905
318.905
504.035
320.571
504.035
320.571
318.905
504.035
318.905
318.905
488.773
318.905
962.382
1012.35
488.773
488.773
320.571
320.571
318.905
504.035
318.905
504.035
318.905
318.905
488.773
504.035
488.773
318.905
334.618
320.571
318.905
504.035
318.905
488.773
318.905
488.773
318.905
488.773
488.773
320.571
318.905
504.035
318.905
488.773
320.571
488.773
504.035
504.035
504.035
318.905
488.773
504.035
1101.71
504.035
504.035
318.905
488.773
318.905
318.905
320.571
318.905
320.571
318.905
488.773
504.035
1060.55
320.571
320.571
488.773
318.905
318.905
318.905
318.905
488.773
488.773
320.571
320.571
318.905
318.905
1125.6
306.636
504.035
488.773
488.773
318.905
488.773
312.138
504.035
318.905
488.773
504.035
320.571
488.773
320.571
318.905
320.571
1205.12
504.035
320.571
318.905
318.905
318.905
320.571
504.035
320.571
318.905
488.773
318.905
320.571
318.905
504.035
320.571
320.571
504.035
488.773
1101.71
318.905
318.905
488.773
488.773
1271.51
504.035
318.905
318.905
488.773
504.035
318.905
504.035
488.773
488.773
318.905
320.571
504.035
1160.43
504.035
318.905
504.035
504.035
320.571
320.571
320.571
320.571
488.773
504.035
504.035
504.035
320.571
318.905
320.571
318.905
488.773
488.773
488.773
488.773
504.035
488.773
488.773
340.663
320.571
318.905
318.905
504.035
504.035
488.773
488.773
488.773
318.905
1026.17
320.571
320.571
318.905
504.035
504.035
318.905
320.571
318.905
504.035
320.571
488.773
488.773
318.905
318.905
318.905
318.905
320.571
320.571
320.571
320.571
318.905
318.905
488.773
318.905
488.773
320.571
488.773
488.773
488.773
318.905
318.905
1221.34
320.571
488.773
504.035
488.773
504.035
318.905
488.773
1105.06
318.905
310.679
504.035
488.773
488.773
1086.84
318.905
318.905
318.905
504.035
309.803
318.905
318.905
1215.3
504.035
318.905
320.571
320.571
320.571
318.905
320.571
504.035
318.905
305.75
320.571
488.773
488.773
488.773
488.773
488.773
318.905
504.035
1207.31
488.773
488.773
488.773
320.571
318.905
318.905
488.773
318.905
318.905
318.905
318.905
320.571
488.773
488.773
504.035
318.905
488.773
318.905
504.035
318.905
504.035
1114.3
488.773
320.571
504.035
504.035
320.571
504.035
354.064
488.773
318.905
320.571
320.571
1219.31
320.571
488.773
504.035
318.905
488.773
318.905
318.905
320.571
320.571
320.571
488.773
320.571
1157.62
504.035
321.782
504.035
504.035
1125.6
318.905
488.773
488.773
488.773
318.905
504.035
488.773
320.571
318.905
318.905
504.035
488.773
307.133
488.773
488.773
320.571
504.035
488.773
504.035
488.773
504.035
488.773
488.773
351.469
320.571
488.773
504.035
318.905
318.905
504.035
488.773
320.571
318.905
320.571
488.773
488.773
318.905
504.035
488.773
504.035
329.591
318.905
318.905
320.571
320.571
320.571
320.571
318.905
488.773
504.035
1086.23
1084.34
504.035
488.773
320.571
488.773
320.571
318.905
488.773
318.905
320.571
504.035
504.035
334.954
488.773
488.773
320.571
488.773
488.773
488.773
488.773
504.035
488.773
504.035
488.773
488.773
320.571
504.035
504.035
488.773
504.035
320.571
320.571
320.571
320.571
488.773
504.035
318.905
488.773
488.773
504.035
318.905
318.905
488.773
504.035
320.571
318.905
504.035
488.773
504.035
504.035
488.773
318.905
488.773
504.035
320.571
320.571
488.773
504.035
318.905
318.905
488.773
504.035
488.773
488.773
1220.06
318.905
320.571
320.571
320.571
320.571
488.773
318.905
318.905
320.571
488.773
504.035
488.773
504.035
320.571
318.905