<?xml version="1.0"?>
<VTKFile type="ImageData" version="0.1" byte_order="LittleEndian">
  <ImageData Origin="0 0 0" Spacing="1e-05 1e-05 1e-05" WholeExtent="0 191 0 191 0 0">
    <Piece Extent="0 191 0 191 0 0">
      <CellData Scalars="T">
        <DataArray type="Float32" Name="T" format="ascii" NumberOfComponents="1">
359.062
15000
14953.4
14876.1
14758.8
14592.3
14368.4
14080.9
13726
13303.1
12814.6
12265.7
11663.8
11018.1
10338.8
9636.96
8923.9
8211.12
7509.94
6831.26
6185.13
5580.37
5024.17
4521.78
4076.37
3689.01
3358.95
3083.92
2860.6
2685.01
2552.89
2459.89
2401.59
2373.49
2370.8
2388.4
2420.89
2462.83
2509.12
2555.46
2598.73
2637.18
2670.46
2699.34
2725.34
2750.33
2776.21
2804.63
2836.98
2874.42
2918.02
2968.82
3027.91
3096.33
3174.9
3263.96
3363
3470.46
3583.63
3698.75
3811.39
3917.01
4011.57
4092.23
4157.99
4210.19
4252.92
4293.08
4340.01
4404.33
4495.75
4620.15
4776.57
4955.35
5138.91
5305.29
5433.86
5511.04
5533.72
5509.44
5453.36
5383.96
5318.96
5272.71
5254.94
5270.24
5317.5
5389.38
5472.4
5548.63
5599.35
5609.72
5573.01
5492.51
5380.5
5254.79
5134.13
5034.22
4965.33
4931.66
4932.13
4961.85
5013.59
5079.01
5149.52
5216.83
5273.28
5312.22
5328.24
5317.45
5277.74
5208.83
5112.32
4991.5
4851.1
4696.89
4535.24
4372.63
4215.21
4068.42
3936.67
3823.18
3729.85
3657.32
3605.04
3571.49
3554.36
3550.81
3557.75
3572.03
3590.68
3611.04
3630.94
3648.74
3663.41
3674.57
3682.47
3688.03
3692.71
3698.5
3707.76
3723.04
3746.83
3781.31
3828.06
3887.81
3960.17
4043.53
4135.06
4230.78
4325.82
4414.78
4492.2
4553
4592.99
4609.29
4600.64
4567.54
4512.28
4438.74
4352.1
4258.33
4163.74
4074.39
3995.61
3931.54
3884.84
3856.52
3845.95
3851.01
3868.35
3893.75
3922.56
3950.08
3972.01
3984.79
3985.82
3973.74
3948.58
3911.89
3866.7
3817.03
3766.85
3718.13
3668.36
3607.85
3516.43
3357.92
3067.86
2525.53
1491.96
311.499
389.883
15000
14953.2
14875.6
14757.9
14590.7
14365.9
14077.2
13720.7
13295.9
12805.2
12253.9
11649.6
11001.5
10320.1
9616.54
8902.33
8188.96
7487.76
6809.56
6164.33
5560.75
5005.91
4504.94
4060.91
3674.85
3345.94
3071.89
2849.32
2674.25
2542.4
2449.39
2390.86
2362.33
2359.11
2376.23
2408.43
2450.4
2497.15
2544.39
2588.96
2629
2663.98
2694.49
2721.9
2747.97
2774.51
2803.2
2835.45
2872.51
2915.47
2965.46
3023.58
3090.92
3168.33
3256.18
3354.02
3460.37
3572.61
3687.08
3799.45
3905.22
4000.38
4082.06
4149.17
4202.9
4247.13
4288.49
4336.02
4400.1
4490.36
4612.85
4767.04
4944
5126.84
5294.12
5425.3
5506.4
5533.57
5513.51
5460.71
5393.31
5329.04
5282.48
5263.71
5277.63
5323.39
5393.81
5475.55
5550.84
5601.06
5611.41
5575.1
5495.26
5383.97
5258.84
5138.47
5038.52
4969.29
4935.04
4934.81
4963.78
5014.79
5079.54
5149.48
5216.31
5272.41
5311.1
5327
5316.21
5276.61
5207.92
5111.72
4991.29
4851.33
4697.59
4536.39
4374.2
4217.14
4070.61
3939.02
3825.56
3732.15
3659.42
3606.85
3572.93
3555.38
3551.38
3557.87
3571.73
3590
3610.06
3629.75
3647.45
3662.14
3673.45
3681.66
3687.66
3692.94
3699.46
3709.56
3725.75
3750.48
3785.87
3833.46
3893.88
3966.7
4050.27
4141.7
4236.99
4331.29
4419.23
4495.39
4554.77
4593.26
4608.1
4598.1
4563.86
4507.75
4433.7
4346.89
4253.31
4159.23
4070.64
3992.76
3929.66
3883.87
3856.32
3846.28
3851.56
3868.75
3893.65
3921.62
3948.09
3968.94
3980.88
3981.69
3970.38
3947.3
3914.09
3873.47
3828.8
3782.99
3736.94
3687.37
3624.5
3528.87
3365.94
3074.29
2540.33
1549.05
302.442
389.329
15000
14953
14875
14756.6
14588.5
14362.3
14071.5
13712.5
13284.5
12790
12234.4
11625.6
10973.1
10287.7
9580.82
8864.14
8149.31
7447.68
6769.99
6126.05
5524.36
4971.75
4473.19
4031.56
3647.76
3320.88
3048.55
2827.35
2653.21
2521.83
2428.82
2369.83
2340.49
2336.28
2352.47
2384.07
2426.04
2473.56
2522.44
2569.4
2612.4
2650.58
2684.21
2714.33
2742.49
2770.39
2799.66
2831.81
2868.17
2909.97
2958.41
3014.7
3079.98
3155.16
3240.68
3336.2
3440.39
3550.81
3664
3775.78
3881.78
3978.01
4061.56
4131.17
4187.77
4234.81
4278.43
4327.14
4390.86
4479.06
4598.07
4748.22
4921.82
5103.32
5272.24
5408.25
5496.68
5532.32
5520.29
5473.8
5410.32
5347.53
5300.44
5279.78
5291.06
5333.89
5401.47
5480.77
5554.28
5603.6
5614.01
5578.57
5500.11
5390.28
5266.31
5146.52
5046.48
4976.54
4941.14
4939.49
4966.96
5016.49
5079.91
5148.68
5214.56
5269.92
5308.11
5323.75
5312.94
5273.55
5205.28
5109.69
4990.02
4850.92
4698.09
4537.8
4376.45
4220.1
4074.11
3942.85
3829.5
3735.96
3662.88
3609.76
3575.14
3556.78
3551.93
3557.55
3570.59
3588.14
3607.61
3626.89
3644.38
3659.1
3670.72
3679.51
3686.39
3692.82
3700.76
3712.49
3730.45
3757
3794.17
3843.35
3905.06
3978.75
4062.66
4153.84
4248.26
4341.08
4426.99
4500.66
4557.25
4592.84
4604.82
4592.22
4555.82
4498.11
4423.11
4336.07
4242.93
4149.89
4062.81
3986.76
3925.56
3881.58
3855.52
3846.48
3852.15
3869.03
3892.91
3919.25
3943.72
3962.58
3973.11
3973.78
3964.31
3945.51
3919.01
3886.85
3850.95
3812.35
3770.07
3719.71
3651.52
3547.47
3375.52
3077.5
2543.77
1568.95
302.385
389.212
15000
14952.9
14874.6
14755.9
14587
14359.6
14067
13705.4
13273.9
12775
12214.4
11600
10941.7
10250.7
9538.91
8818.25
8100.63
7397.51
6719.57
6076.46
5476.46
4926.13
4430.18
3991.26
3610.1
3285.64
3015.39
2795.84
2622.86
2492.04
2398.98
2339.36
2308.9
2303.32
2318.17
2348.84
2390.66
2439.06
2489.97
2540.05
2586.96
2629.49
2667.42
2701.38
2732.58
2762.53
2792.81
2824.99
2860.52
2900.79
2947.15
3000.92
3063.32
3135.36
3217.58
3309.8
3410.89
3518.68
3629.95
3740.77
3846.93
3944.5
4030.5
4103.45
4163.89
4214.73
4261.46
4311.87
4375.3
4460.97
4575.56
4720.48
4889.65
5069.32
5240.36
5382.77
5481.05
5528.25
5527.35
5489.79
5431.99
5371.5
5323.86
5300.62
5308.16
5346.81
5410.33
5486.18
5557.27
5605.49
5616.18
5582.2
5505.89
5398.3
5276.06
5157.13
5056.94
4985.92
4948.77
4944.97
4970.14
5017.45
5078.82
5145.82
5210.23
5264.46
5301.87
5317.08
5306.2
5267.08
5199.41
5104.69
4986.11
4848.27
4696.78
4537.83
4377.74
4222.47
4077.33
3946.62
3833.49
3739.84
3666.32
3612.49
3576.92
3557.44
3551.38
3555.78
3567.66
3584.17
3602.79
3621.46
3638.65
3653.42
3665.46
3675.09
3683.22
3691.32
3701.29
3715.35
3735.84
3764.99
3804.66
3856.06
3919.55
3994.39
4078.7
4169.41
4262.47
4353.05
4435.94
4505.98
4558.52
4589.92
4597.84
4581.58
4542.16
4482.28
4406.09
4318.87
4226.54
4135.15
4050.38
3977.04
3918.65
3877.29
3853.35
3845.72
3851.87
3868.21
3890.55
3914.53
3936.19
3952.43
3961.35
3962.37
3956.07
3943.65
3926.41
3905.12
3879.63
3848.54
3808.83
3755.13
3678.28
3562.31
3378.26
3071.33
2535.57
1565.93
302.295
388.372
15000
14953
14875.1
14756.5
14587.8
14360.3
14067.1
13704
13270
12767.7
12202.3
11582.2
10917.6
10220.1
9501.98
8775.71
8053.55
7347.17
6667.32
6023.58
5424.03
4874.99
4380.88
3944.12
3565.2
3242.88
2974.54
2756.54
2584.61
2454.28
2361.06
2300.62
2268.81
2261.53
2274.7
2304.1
2345.47
2394.59
2447.54
2500.97
2552.29
2599.83
2642.87
2681.53
2716.6
2749.31
2781.14
2813.67
2848.47
2887.1
2931.07
2981.84
3040.77
3108.96
3187.1
3275.21
3372.41
3476.82
3585.55
3694.97
3801.07
3900.01
3988.72
4065.46
4130.32
4185.62
4236.08
4288.68
4352.07
4435.2
4545.07
4684.22
4848.4
5025.9
5199.17
5348.8
5458.46
5519.27
5531.77
5505.22
5454.7
5397.42
5349.41
5323.18
5326.14
5359.58
5418.03
5489.64
5557.85
5604.93
5616.3
5584.49
5511.17
5406.62
5286.7
5168.89
5068.45
4995.97
4956.43
4949.72
4971.79
5016.07
5074.66
5139.24
5201.64
5254.31
5290.62
5305.2
5294.16
5255.34
5188.38
5094.75
4977.57
4841.34
4691.6
4534.41
4375.98
4222.19
4078.23
3948.35
3835.63
3741.97
3668.03
3613.41
3576.74
3555.94
3548.42
3551.32
3561.75
3576.95
3594.49
3612.39
3629.18
3644
3656.57
3667.24
3676.96
3687.15
3699.67
3716.64
3740.28
3772.63
3815.36
3869.45
3935.03
4011.16
4095.77
4185.71
4276.85
4364.43
4443.36
4508.7
4556.09
4582.2
4585.07
4564.33
4521.31
4458.94
4381.53
4294.38
4203.35
4114.31
4032.68
3962.9
3908.17
3870.12
3848.84
3842.88
3849.49
3865.01
3885.28
3906.23
3924.45
3937.66
3945.02
3947.04
3945.06
3940.42
3933.56
3923.42
3907.38
3881.58
3841.31
3780.93
3692.62
3563.01
3366.34
3051.05
2514.01
1550.71
302.2
387.99
15000
14953.7
14876.7
14759.4
14592.3
14366.4
14074.6
13712.3
13278.2
12774.3
12205.9
11581.2
10910.8
10206.4
9481.02
8747.61
8018.92
7307
6622.86
5976.13
5374.81
4825.06
4331.05
3894.97
3517.07
3195.93
2928.73
2711.68
2540.37
2410.18
2316.53
2255.07
2221.67
2212.46
2223.62
2251.36
2291.85
2341.25
2395.9
2452.44
2508.1
2560.83
2609.37
2653.3
2692.92
2729.1
2763.11
2796.5
2830.92
2868.06
2909.6
2957.17
3012.26
3076.12
3149.62
3232.99
3325.63
3426
3531.59
3639.09
3744.75
3844.84
3936.2
4016.84
4086.38
4146.49
4201.09
4256.33
4320.14
4401.08
4506.46
4639.88
4798.91
4973.96
5149.29
5306.23
5427.84
5503.32
5530.67
5516.7
5474.86
5421.75
5373.8
5344.45
5342.29
5369.73
5422.33
5489.09
5554.17
5600.27
5612.84
5583.97
5514.56
5413.84
5296.82
5180.38
5079.59
5005.21
4962.62
4952.19
4970.29
5010.7
5065.74
5127.2
5187.01
5237.65
5272.52
5286.23
5274.92
5236.37
5170.21
5077.84
4962.31
4828.02
4680.39
4525.36
4369.01
4217.1
4074.7
3945.97
3833.93
3740.45
3666.22
3610.84
3573.04
3550.81
3541.68
3542.89
3551.66
3565.36
3581.65
3598.63
3614.95
3629.79
3642.96
3654.85
3666.39
3679
3694.46
3714.79
3742.03
3778.01
3824.16
3881.2
3949
4026.36
4111.05
4199.77
4288.38
4372.19
4446.28
4505.98
4547.29
4567.26
4564.35
4538.61
4491.69
4426.79
4348.35
4261.72
4172.62
4086.7
4009.03
3943.65
3893.28
3859.14
3840.88
3836.72
3843.68
3858.01
3875.7
3893.04
3907.32
3917.22
3923.04
3926.33
3928.96
3931.99
3934.53
3933.39
3923.53
3899.07
3854.49
3784.76
3683.99
3541.57
3334.62
3014.14
2478.96
1522.8
302.1
387.841
15000
14954.8
14879.6
14765
14601.2
14379.1
14091.3
13732.7
13301.4
12799
12230.3
11603.2
10928.3
10217.7
9484.77
8743.07
8005.99
7286.14
6594.94
5942.29
5336.28
4783.04
4286.59
3848.93
3470.11
3148.5
2881.09
2663.91
2492.38
2361.7
2267.18
2204.35
2169.11
2157.69
2166.52
2192.19
2231.26
2280.31
2335.95
2394.96
2454.46
2512.07
2566.09
2615.54
2660.19
2700.48
2737.4
2772.33
2806.94
2843.01
2882.35
2926.76
2977.89
3037.18
3105.66
3183.81
3271.35
3367.11
3468.96
3573.97
3678.68
3779.48
3873.2
3957.57
4031.76
4096.79
4155.8
4214.1
4278.88
4358.27
4459.76
4587.86
4741.85
4914.24
5091.17
5254.96
5388.3
5478.68
5521.59
5521.28
5489.28
5441.37
5394.09
5361.79
5354.26
5375.21
5421.41
5482.92
5544.77
5590.15
5604.52
5579.45
5514.85
5418.79
5305.23
5190.38
5089.1
5012.36
4966.02
4951.01
4964.25
4999.9
5050.55
5108.18
5164.79
5212.91
5245.95
5258.53
5246.78
5208.46
5143.14
5052.18
4938.51
4806.46
4661.28
4508.8
4354.94
4205.31
4064.87
3937.67
3826.65
3733.63
3659.31
3603.32
3564.46
3540.82
3530.03
3529.46
3536.45
3548.5
3563.4
3579.37
3595.14
3610
3623.82
3637.02
3650.56
3665.82
3684.49
3708.46
3739.56
3779.41
3829.14
3889.18
3959.11
4037.48
4121.85
4208.82
4294.24
4373.51
4441.95
4495.21
4529.69
4542.9
4533.78
4502.79
4451.96
4384.76
4305.75
4220.25
4133.83
4051.84
3978.92
3918.67
3873.28
3843.47
3828.44
3826.08
3833.19
3845.99
3860.66
3873.97
3883.94
3890.25
3894.25
3898.26
3904.36
3912.94
3921.61
3925.18
3916.73
3889.34
3837.58
3757.76
3646.13
3494.4
3281.81
2960.95
2431.2
1481.15
302.025
388.311
15000
14956.4
14883.9
14773.1
14614.3
14398.2
14117.1
13765.4
13340.4
12842.9
12277.2
11650.6
10973.6
10258.2
9518.23
8767.82
8021.02
7291.16
6590.25
5928.66
5314.77
4754.85
4252.94
3810.91
3428.68
3104.43
2834.97
2616.14
2443.16
2311.07
2214.97
2150.27
2112.82
2098.86
2105.03
2128.16
2165.2
2213.12
2268.86
2329.39
2391.84
2453.65
2512.73
2567.62
2617.56
2662.5
2703.03
2740.31
2775.87
2811.51
2849.14
2890.69
2937.98
2992.63
3055.9
3128.52
3210.55
3301.17
3398.7
3500.61
3603.74
3704.69
3800.25
3887.97
3966.58
4036.48
4100.05
4161.79
4228.12
4306.72
4405.09
4528.51
4677.74
4847.29
5025.2
5194.98
5339.24
5444.1
5502.68
5516.67
5495.49
5453.77
5407.97
5373.15
5360.31
5374.55
5414.03
5470.08
5528.72
5573.72
5590.53
5570.1
5511.2
5420.59
5311.03
5197.96
5096.03
5016.45
4965.63
4945.18
4952.61
4982.59
5028.02
5081.08
5133.86
5178.94
5209.75
5220.93
5208.56
5170.4
5105.96
5016.5
4904.9
4775.33
4632.93
4483.36
4332.38
4185.46
4047.41
3922.13
3812.51
3720.3
3646.18
3589.82
3550.08
3525.13
3512.72
3510.37
3515.55
3525.89
3539.32
3554.2
3569.38
3584.23
3598.72
3613.3
3628.94
3646.97
3669
3696.73
3731.8
3775.55
3828.81
3891.71
3963.49
4042.47
4126
4210.59
4292.11
4366.11
4428.18
4474.33
4501.44
4507.52
4492
4455.8
4401.34
4332.29
4253.34
4169.72
4086.78
4009.52
3942.1
3887.58
3847.62
3822.4
3810.7
3810.06
3817.15
3828.21
3839.68
3848.83
3854.4
3856.91
3858.44
3861.72
3868.68
3878.85
3888.57
3891.29
3879.22
3845.44
3785.45
3697.17
3578.6
3422.99
3210.59
2894.69
2375.77
1454
301.97
388.934
15000
14958.5
14889.2
14783.1
14630.6
14422.4
14150.3
13808.2
13392.7
12903.7
12344.5
11721.8
11045.5
10327.6
9582.06
8823.44
8066.5
7325.3
6612.62
5939.47
5314.74
4745.01
4234.49
3785.1
3396.68
3067.31
2793.64
2571.31
2395.37
2260.63
2162.01
2094.74
2054.54
2037.64
2040.72
2060.82
2095.18
2141.13
2195.94
2256.87
2321.15
2386.17
2449.58
2509.53
2564.76
2614.7
2659.5
2699.93
2737.33
2773.37
2809.99
2849.21
2893
2943.16
3001.19
3068.1
3144.28
3229.34
3322
3420.16
3521.03
3621.43
3718.2
3808.72
3891.35
3965.91
4034.07
4099.53
4167.97
4246.53
4342.61
4462.06
4606.89
4773.43
4951.61
5126.29
5280.33
5398.79
5472.72
5501.28
5491.69
5457.15
5413.76
5377.08
5359.27
5366.87
5399.57
5450.12
5505.69
5550.68
5570.55
5555.53
5503.14
5418.67
5313.58
5202.47
5099.72
5016.81
4960.81
4934.06
4934.79
4958.19
4997.58
5045.33
5093.66
5135.21
5163.41
5172.9
5159.75
5121.67
5058.11
4970.28
4860.91
4734.07
4594.74
4448.42
4300.71
4156.9
4021.64
3898.71
3790.89
3699.86
3626.28
3569.85
3529.46
3503.39
3489.51
3485.45
3488.85
3497.49
3509.45
3523.21
3537.77
3552.61
3567.76
3583.75
3601.51
3622.35
3647.74
3679.23
3718.21
3765.73
3822.3
3887.72
3960.94
4039.99
4122.05
4203.57
4280.48
4348.51
4403.57
4442.12
4461.51
4460.3
4438.44
4397.31
4339.67
4269.42
4191.27
4110.35
4031.71
3959.9
3898.61
3850.28
3816.04
3795.55
3787.19
3788.26
3795.33
3804.78
3813.35
3818.78
3820.37
3819.13
3817.46
3818.03
3822.32
3829.15
3834.11
3830.34
3810.33
3768.13
3700.66
3607.21
3486.82
3333.2
3126.64
2820.6
2317.63
1427.78
301.905
389.2
15000
14960.6
14894.9
14794.1
14648.7
14449.4
14187.9
13857.4
13453.9
12976.2
12426.7
11811.3
11139
10421.5
9672.69
8907.41
8140.98
7388.22
6662.71
5976.23
5338.35
4756.16
4234.2
3774.59
3377.25
3040.21
2760.02
2532.18
2351.54
2212.73
2110.44
2039.71
1996.08
1975.68
1975.18
1991.72
2022.75
2065.88
2118.73
2178.86
2243.72
2310.76
2377.53
2441.87
2502.11
2557.19
2606.74
2651.09
2691.22
2728.6
2765.08
2802.69
2843.51
2889.52
2942.46
3003.63
3073.76
3152.88
3240.16
3333.95
3431.84
3530.93
3628.17
3720.82
3806.92
3885.8
3958.44
4027.79
4098.77
4177.94
4272.49
4388.63
4529.42
4692.8
4870.55
5048.96
5211.44
5342.37
5431.02
5474.16
5476.74
5450.34
5410.39
5372.74
5350.57
5351.89
5378
5423.2
5475.92
5521.28
5544.72
5535.73
5490.49
5412.72
5312.46
5203.4
5099.66
5013.01
4951.19
4917.38
4910.58
4926.61
4959.19
5000.96
5044.29
5081.84
5107.09
5114.65
5100.56
5062.5
4999.86
4913.73
4806.77
4682.88
4546.89
4404.14
4260.04
4119.7
3987.61
3867.42
3761.78
3672.32
3599.64
3543.46
3502.71
3475.78
3460.62
3455.02
3456.76
3463.77
3474.29
3486.97
3500.91
3515.73
3531.55
3548.92
3568.79
3592.38
3621.06
3656.17
3698.86
3749.87
3809.39
3876.88
3950.96
4029.45
4109.36
4187.1
4258.71
4320.15
4367.69
4398.26
4409.76
4401.3
4373.35
4327.73
4267.54
4196.82
4120.28
4042.85
3969.23
3903.5
3848.79
3806.96
3778.58
3762.88
3757.92
3760.85
3768.3
3776.83
3783.51
3786.44
3785.17
3780.79
3775.46
3771.39
3769.46
3768.1
3763
3748.03
3717.05
3665.76
3592.56
3497.63
3380.16
3233.4
3036.95
2744.08
2258.85
1391.56
301.821
388.86
15000
14962.7
14900.5
14804.8
14666.4
14476.3
14225.7
13907.7
13517.6
13053.2
12516.1
11910.9
11245.9
10532.1
9783.04
9013.64
8239.57
7476.27
6738.1
6037.68
5385.35
4788.86
4253.29
3781.11
3372.42
3025.36
2736.44
2501.07
2313.96
2169.54
2062.3
1987.07
1939.19
1914.63
1909.98
1922.4
1949.45
1988.97
2038.88
2097.05
2161.21
2228.99
2297.94
2365.77
2430.48
2490.56
2545.12
2594
2637.7
2677.39
2714.68
2751.55
2790.12
2832.51
2880.68
2936.22
3000.23
3073.15
3154.62
3243.44
3337.64
3434.62
3531.5
3625.49
3714.41
3797.11
3873.97
3947.19
4020.98
4101.25
4194.91
4308.32
4445.39
4605.48
4782.1
4963.08
5132.61
5274.74
5377.27
5434.81
5450
5432.63
5397.23
5359.7
5334.08
5329.78
5349.76
5389.97
5440.14
5486.18
5513.56
5510.98
5473.25
5402.48
5307.26
5200.3
5095.42
5004.71
4936.6
4895.14
4880.17
4888.16
4913.32
4948.57
4986.41
5019.58
5041.58
5047.01
5031.89
4993.82
4932.14
4847.84
4743.43
4622.7
4490.3
4351.38
4211.18
4074.62
3946.03
3828.91
3725.8
3638.24
3566.81
3511.21
3470.43
3442.91
3426.73
3419.8
3420.05
3425.57
3434.76
3446.42
3459.79
3474.62
3491.08
3509.8
3531.7
3557.94
3589.75
3628.26
3674.36
3728.48
3790.48
3859.47
3933.8
4011.04
4088.09
4161.36
4227.02
4281.33
4320.96
4343.35
4346.95
4331.42
4297.77
4248.24
4186.17
4115.75
4041.58
3968.34
3900.34
3841.14
3793.28
3758.08
3735.61
3724.77
3723.41
3728.7
3737.42
3746.41
3752.98
3755.39
3753.05
3746.64
3737.61
3727.39
3716.34
3702.94
3683.79
3654.45
3610.88
3550.73
3473.66
3380.2
3268.96
3132.04
2947.96
2669.51
2201.21
1352.62
301.747
388.165
15000
14964.5
14905.1
14813.8
14681.6
14499.6
14259.3
13953.4
13576.7
13126.5
12603.3
12010.7
11356
10649.3
9903.56
9133.41
8354.63
7583.06
6833.74
6120.06
5453.19
4841.67
4291.22
3804.84
3382.98
3023.96
2724.4
2479.69
2284.43
2132.9
2019.42
1938.59
1885.56
1856.1
1846.68
1854.39
1876.85
1912.04
1958.11
2013.25
2075.48
2142.69
2212.57
2282.8
2351.17
2415.81
2475.37
2529.13
2577.1
2619.99
2659.09
2696.2
2733.39
2772.86
2816.75
2866.95
2924.91
2991.49
3066.8
3150.12
3239.94
3334
3429.66
3524.14
3615.09
3700.97
3781.61
3858.54
3935.2
4016.9
4110.11
4221.25
4354.86
4511.52
4686.36
4868.79
5043.98
5195.96
5311.4
5382.98
5411.08
5403.61
5373.95
5337.81
5309.92
5300.97
5315.57
5351.31
5399.31
5446.27
5477.71
5481.62
5451.46
5387.73
5297.56
5192.69
5086.61
4991.68
4917.03
4867.58
4844.04
4843.57
4860.87
4889.19
4921.19
4949.71
4968.26
4971.43
4955.21
4917.15
4856.5
4774.13
4672.45
4555.05
4426.44
4291.57
4155.48
4022.94
3898.1
3784.31
3684
3598.63
3528.74
3474.02
3433.51
3405.71
3388.8
3380.8
3379.8
3384.03
3392.04
3402.79
3415.67
3430.53
3447.65
3467.66
3491.5
3520.23
3554.94
3596.57
3645.71
3702.5
3766.43
3836.33
3910.24
3985.54
4059.05
4127.21
4186.37
4233.12
4264.59
4278.71
4274.53
4252.26
4213.4
4160.56
4097.32
4027.9
3956.76
3888.28
3826.3
3773.85
3732.92
3704.33
3687.76
3681.89
3684.56
3693.08
3704.5
3715.9
3724.7
3728.96
3727.58
3720.36
3707.71
3690.2
3667.9
3639.92
3604.42
3559.23
3502.74
3434.51
3355.12
3264.92
3161.47
3035.48
2864.19
2599.82
2147.18
1318.52
301.695
387.335
15000
14965.6
14908.2
14819.9
14692.1
14516.3
14284.2
13988.6
13624.1
13187.6
12678.7
12100.3
11458.3
10762
10023.3
9256.39
8476.72
7700.29
6942.56
6217.61
5537.41
4911.3
4345.78
3844.49
3408.38
3036.11
2724.49
2468.97
2264.15
2104.19
1983.26
1895.78
1836.7
1801.59
1786.76
1789.19
1806.48
1836.69
1878.16
1929.31
1988.49
2053.88
2123.39
2194.79
2265.8
2334.3
2398.52
2457.25
2509.94
2556.76
2598.61
2636.96
2673.74
2711.15
2751.45
2796.77
2848.91
2909.15
2978.08
3055.46
3140.25
3230.61
3324.14
3418.2
3510.29
3598.6
3682.44
3762.71
3842.16
3925.41
4018.46
4127.65
4257.96
4411.03
4583.49
4766.29
4945.75
5106.17
5233.44
5318.54
5359.74
5362.98
5340.31
5307.02
5278.28
5265.94
5276.17
5308.15
5354.37
5402.38
5437.81
5447.99
5425.14
5368.23
5282.98
5180.18
5072.93
4973.83
4892.66
4835.19
4802.94
4793.83
4803.06
4824.21
4850.17
4873.87
4888.85
4889.71
4872.39
4834.39
4774.87
4694.57
4595.75
4481.84
4357.16
4226.49
4094.67
3966.29
3845.33
3735.04
3637.71
3554.74
3486.62
3433.06
3393.1
3365.31
3347.95
3339.18
3337.18
3340.35
3347.39
3357.4
3369.89
3384.85
3402.61
3423.87
3449.53
3480.58
3517.95
3562.36
3614.14
3673.1
3738.43
3808.61
3881.46
3954.18
4023.52
4086.01
4138.23
4177.13
4200.29
4206.21
4194.48
4165.88
4122.35
4066.83
4003.06
3935.24
3867.64
3804.26
3748.49
3702.8
3668.69
3646.55
3635.83
3635.13
3642.45
3655.36
3671.18
3687.13
3700.46
3708.68
3709.77
3702.34
3685.73
3659.82
3624.83
3580.98
3528.46
3467.59
3399.07
3324.04
3243.6
3157.57
3062.27
2946.96
2787.76
2536.43
2099.34
1300.1
301.64
386.725
15000
14965.9
14909
14821.8
14696.1
14523.6
14296.5
14008.2
13653.3
13228.7
12733.5
12169.6
11542.2
10859.1
10131.2
9371.76
8595.64
7818.61
7056.29
6323.23
5632.09
4993.03
4413.36
3897.45
3446.89
3060.81
2736.31
2469.03
2253.62
2084.21
1954.84
1859.81
1793.86
1752.4
1731.55
1728.17
1739.79
1764.47
1800.68
1847.04
1902.19
1964.6
2032.47
2103.75
2176.21
2247.61
2315.86
2379.3
2436.86
2488.14
2533.52
2574.07
2611.46
2647.77
2685.31
2726.4
2773.15
2827.22
2889.67
2960.78
3039.98
3125.88
3216.39
3309.05
3401.34
3491.21
3577.55
3660.67
3742.63
3827.39
3920.42
4027.86
4154.97
4304.26
4473.7
4655.8
4838.15
5005.56
5143.47
5241.45
5295.82
5310.53
5296.13
5267.27
5239.31
5225.08
5232.12
5261.18
5306.06
5355.17
5394.33
5410.34
5394.32
5343.85
5263.33
5162.59
5054.35
4951.36
4863.96
4798.69
4757.91
4740.21
4741.35
4755.28
4775.13
4793.93
4805.32
4803.87
4785.51
4747.67
4689.37
4611.27
4515.44
4405.14
4284.49
4158.08
4030.58
3906.41
3789.39
3682.64
3588.38
3507.93
3441.75
3389.54
3350.36
3322.86
3305.35
3296.09
3293.39
3295.77
3302.06
3311.5
3323.74
3338.86
3357.28
3379.74
3407.1
3440.27
3480.04
3526.89
3580.89
3641.55
3707.72
3777.61
3848.81
3918.36
3983
4039.39
4084.36
4115.23
4130.09
4127.98
4109.05
4074.57
4026.91
3969.29
3905.55
3839.8
3776.05
3717.93
3668.31
3629.18
3601.59
3585.63
3580.63
3585.31
3597.93
3616.35
3638.11
3660.31
3679.72
3692.95
3696.77
3688.6
3666.89
3631.31
3582.73
3522.93
3454.26
3379.38
3300.88
3220.99
3140.89
3059.64
2972.33
2866.96
2718.71
2479.2
2055.99
1272.45
301.587
386.788
15000
14965.2
14907.3
14818.9
14692.2
14519.4
14293.5
14008.5
13659.6
13243.8
12760.4
12210.6
11598.5
10930.8
10217.1
9469.31
8701.41
7928.57
7166.23
6429.15
5730.52
5081.2
4489.34
3960.1
3495.79
3096.11
2758.61
2479.19
2252.65
2073.14
1934.67
1831.4
1757.96
1709.57
1682.2
1672.55
1678.07
1696.78
1727.21
1768.14
1818.42
1876.83
1941.86
2011.74
2084.36
2157.48
2228.84
2296.42
2358.66
2414.61
2464.09
2507.67
2546.65
2582.89
2618.63
2656.31
2698.26
2746.51
2802.56
2867.19
2940.34
3021.09
3107.73
3198.02
3289.51
3380
3468.03
3553.38
3637.48
3723.58
3816.61
3922.37
4046.29
4191.57
4357.39
4537.76
4721.61
4894.54
5041.82
5151.91
5219.38
5246.21
5241.35
5218.54
5193.12
5178.61
5183.79
5210.82
5254.82
5305.04
5347.59
5368.89
5359.14
5314.68
5238.69
5140.12
5031.23
4924.83
4831.71
4759.13
4710.18
4684.15
4677.36
4684.16
4697.92
4711.87
4719.68
4715.99
4696.67
4659.06
4602.12
4526.32
4433.56
4326.93
4210.36
4088.22
3965.02
3845
3731.88
3628.64
3537.43
3459.53
3395.36
3344.64
3306.44
3279.45
3262.05
3252.59
3249.46
3251.31
3257.09
3266.16
3278.3
3293.67
3312.78
3336.38
3365.33
3400.44
3442.33
3491.3
3547.11
3609
3675.51
3744.58
3813.59
3879.48
3939.01
3988.98
4026.52
4049.34
4056.03
4046.17
4020.44
3980.6
3929.36
3870.16
3806.88
3743.5
3683.75
3630.81
3587.1
3554.15
3532.63
3522.46
3522.96
3533.08
3551.36
3575.95
3604.38
3633.41
3659.01
3676.65
3681.9
3671.22
3642.63
3596.18
3533.88
3459.3
3376.84
3290.99
3205.64
3123.51
3045.48
2969.77
2890.34
2794.18
2655.82
2426.91
2016.01
1248.79
301.53
387.735
15000
14963.5
14902.9
14810.9
14680.1
14503.3
14274.2
13987.9
13640.5
13229.8
12755.2
12217.8
11620.9
10969.9
10273
9540.57
8785.38
8021.62
7264.18
6527.75
5825.8
5169.78
4568.58
4028.18
3551.66
3139.39
2789.44
2498.11
2260.4
2070.61
1922.72
1810.86
1729.53
1673.82
1639.56
1623.33
1622.42
1634.85
1659.11
1694.1
1738.85
1792.39
1853.52
1920.74
1992.2
2065.74
2139.05
2209.88
2276.27
2336.77
2390.62
2437.86
2479.3
2516.47
2551.46
2586.66
2624.58
2667.55
2717.46
2775.58
2842.36
2917.37
2999.33
3086.32
3176.01
3266.14
3354.98
3441.87
3527.61
3614.8
3707.73
3811.84
3932.55
4073.59
4235.22
4412.88
4596.91
4773.87
4929.17
5050.5
5130.84
5170.31
5176.13
5160.95
5139.79
5126.64
5131.32
5157.27
5200.84
5252.2
5297.81
5323.89
5319.88
5281.07
5209.56
5113.38
5004.33
4895.16
4797.03
4717.77
4661.19
4627.23
4612.77
4612.6
4620.39
4629.54
4633.86
4627.99
4607.78
4570.52
4515.01
4441.58
4351.96
4249.02
4136.49
4018.56
3899.56
3783.57
3674.21
3574.36
3486.12
3410.72
3348.57
3299.4
3262.31
3236.01
3218.95
3209.53
3206.24
3207.82
3213.31
3222.2
3234.37
3250.08
3269.91
3294.61
3325.04
3361.9
3405.67
3456.42
3513.68
3576.36
3642.75
3710.54
3776.92
3838.78
3892.89
3936.26
3966.31
3981.19
3979.96
3962.72
3930.67
3885.98
3831.68
3771.36
3708.88
3648.05
3592.27
3544.3
3506.12
3478.85
3462.86
3457.97
3463.57
3478.84
3502.59
3533.07
3567.62
3602.42
3632.48
3652.2
3656.2
3640.45
3603.17
3545.31
3470.35
3383.58
3291.01
3198.33
3110.05
3028.79
2954.89
2885.67
2814.21
2726.76
2597.46
2378.15
1978.37
1228.01
301.484
389.055
15000
14960.9
14896.2
14798.6
14660.7
14476.2
14239.8
13947.7
13597.2
13187.3
12717.9
12190.3
11607.2
10973
10294.3
9580
8841.27
8091.02
7343.28
6612.32
5911.6
5252.98
4645.94
4097.26
3610.77
3187.59
2826.41
2523.96
2275.59
2075.75
1918.54
1798.04
1708.71
1645.54
1604.22
1581.2
1573.71
1579.64
1597.49
1626.18
1664.89
1712.86
1769.16
1832.59
1901.58
1974.16
2048.09
2121.03
2190.72
2255.29
2313.46
2364.7
2409.29
2448.33
2483.59
2517.36
2552.18
2590.58
2634.82
2686.59
2746.84
2815.67
2892.27
2975.08
3062
3150.79
3239.55
3327.21
3414.04
3501.98
3594.68
3697.11
3814.58
3951.21
4108.17
4282.24
4465.22
4644.77
4806.75
4938.3
5031.12
5083.51
5100.96
5094.81
5079.52
5069.31
5074.79
5100.58
5144.2
5196.76
5245.19
5275.65
5277.02
5243.69
5176.74
5083.35
4974.76
4863.59
4761.24
4676.05
4612.43
4571.01
4549.21
4542.27
4544.21
4548.67
4549.55
4541.56
4520.53
4483.66
4429.63
4358.61
4272.12
4172.83
4064.26
3950.42
3835.45
3723.33
3617.53
3520.9
3435.46
3362.45
3302.28
3254.66
3218.75
3193.26
3176.71
3167.54
3164.31
3165.82
3171.23
3180.12
3192.45
3208.58
3229.13
3254.91
3286.7
3325.14
3370.56
3422.79
3481.14
3544.23
3610.11
3676.22
3739.62
3797.14
3845.66
3882.36
3905
3912.15
3903.36
3879.21
3841.36
3792.36
3735.49
3674.44
3613.02
3554.81
3502.88
3459.61
3426.55
3404.45
3393.46
3393.29
3403.42
3423.13
3451.35
3486.27
3524.86
3562.63
3593.76
3611.87
3611.17
3587.78
3540.69
3472.1
3386.94
3291.87
3193.88
3099.16
3012.12
2934.94
2867.22
2805.49
2742.16
2663.04
2542.18
2331.79
1942.9
1208.64
301.434
389.916
15000
14957.7
14887.9
14783.1
14636.3
14441.4
14194.4
13892.5
13534.7
13121.3
12653.1
12131.8
11560
10941.2
10280.8
9585.9
8866.1
8132.79
7398.85
6677.78
5982.78
5325.81
4716.81
4163.17
3669.51
3237.66
2866.96
2554.69
2296.59
2087.38
1921.29
1792.45
1695.29
1624.73
1576.39
1546.6
1532.48
1531.86
1543.17
1565.37
1597.7
1639.55
1690.26
1748.9
1814.19
1884.44
1957.57
2031.26
2103.12
2170.96
2233.06
2288.33
2336.5
2378.16
2414.68
2448.09
2480.86
2515.6
2554.82
2600.61
2654.39
2716.78
2787.49
2865.36
2948.6
3035.11
3122.86
3210.52
3297.84
3386.14
3478.43
3579.16
3693.41
3825.53
3977.48
4147.25
4328.09
4508.91
4676.19
4816.87
4921.55
4986.92
5016.68
5020.71
5012.7
5006.82
5014.31
5040.8
5084.94
5138.81
5189.94
5224.55
5231.14
5203.31
5141.2
5051.13
4943.75
4831.44
4725.73
4635.36
4565.35
4516.93
4488.11
4474.62
4470.84
4470.66
4468.13
4458.04
4436.19
4399.72
4347.16
4278.51
4195.09
4099.36
3994.63
3884.71
3773.59
3665.1
3562.66
3469.02
3386.21
3315.44
3257.13
3211.03
3176.3
3151.7
3135.77
3126.98
3123.97
3125.58
3131.07
3140.09
3152.69
3169.29
3190.6
3217.4
3250.45
3290.31
3337.14
3390.59
3449.69
3512.86
3577.85
3641.96
3702.1
3755.09
3797.93
3828.01
3843.44
3843.18
3827.26
3796.73
3753.64
3700.88
3641.91
3580.49
3520.32
3464.78
3416.61
3377.81
3349.55
3332.29
3325.91
3329.99
3343.95
3367.03
3398.03
3434.87
3474.1
3510.68
3538.36
3550.55
3541.76
3508.85
3452
3374.67
3282.98
3184.32
3085.98
2993.91
2911.98
2841.65
2781.77
2728.27
2673.13
2601.96
2488.95
2286.87
1908.15
1189.52
301.39
389.713
15000
14954.3
14879.1
14766.7
14610
14403.5
14143.9
13829.8
13461.6
13040.9
12569.9
12051.1
11487
10880.9
10236.9
9560.91
8860.77
8146.3
7429
6721.36
6035.99
5384.67
4777.55
4222.49
3724.72
3286.78
2908.68
2588.27
2321.76
2104.17
1929.95
1793.33
1688.76
1611.15
1556.01
1519.63
1499.01
1491.91
1496.71
1512.34
1538.09
1573.47
1617.98
1670.98
1731.49
1798.1
1868.99
1941.97
2014.65
2084.68
2149.96
2208.96
2260.86
2305.68
2344.32
2378.41
2410.23
2442.35
2477.41
2517.82
2565.43
2621.35
2685.81
2758.14
2836.92
2920.24
3006.11
3092.96
3180.13
3268.37
3360.06
3459.06
3570.15
3697.78
3844.52
4009.47
4187.28
4368.16
4539.42
4688.04
4803.82
4881.95
4924.38
4939.47
4939.89
4939.54
4950.07
4978.01
5023.12
5078.47
5132.27
5170.99
5182.82
5160.7
5103.89
5017.83
4912.49
4799.95
4691.74
4596.97
4521.18
4466.22
4430.69
4410.82
4401.4
4396.59
4390.63
4378.39
4355.66
4319.51
4268.34
4201.96
4121.5
4029.2
3928.13
3821.94
3714.46
3609.39
3510.06
3419.21
3338.82
3270.11
3213.55
3168.87
3135.29
3111.57
3096.3
3087.98
3085.27
3087.1
3092.78
3102.01
3114.95
3132.08
3154.13
3181.9
3216.12
3257.23
3305.26
3359.65
3419.22
3482.13
3545.93
3607.74
3664.4
3712.76
3749.91
3773.5
3781.98
3774.73
3752.18
3715.84
3668.1
3612.13
3551.54
3490.1
3431.41
3378.63
3334.21
3299.83
3276.34
3263.87
3262.02
3270.12
3287.31
3312.51
3344.16
3379.78
3415.54
3446.21
3465.65
3467.85
3448.24
3404.99
3339.54
3256.44
3162.4
3064.9
2970.81
2885.34
2811.52
2749.99
2698.96
2653.94
2606.73
2542.99
2437.18
2242.87
1874.29
1171.65
301.335
389.254
15000
14951.3
14871.2
14751.8
14585.8
14368.1
14095.8
13768.7
13388.5
12958
12480.9
11960.5
11399.9
10802.3
10171.3
9511.78
8830.03
8134.39
7434.93
6742.9
6070.06
5427.73
4825.95
4272.82
3774.05
3332.76
2949.57
2622.94
2349.55
2124.82
1943.45
1799.83
1688.47
1604.29
1542.77
1500.12
1473.28
1459.91
1458.34
1467.46
1486.58
1515.26
1553.17
1599.87
1654.65
1716.45
1783.71
1854.51
1926.55
1997.44
2064.9
2127
2182.44
2230.69
2272.08
2307.81
2339.78
2370.41
2402.35
2438.2
2480.17
2529.83
2587.92
2654.3
2727.96
2807.31
2890.45
2975.69
3062.06
3149.79
3240.64
3337.89
3445.93
3569.17
3710.66
3870.48
4044.55
4224.44
4398.43
4553.79
4679.72
4770.15
4825.35
4852.04
4861.76
4867.9
4882.34
4912.38
4958.84
5015.83
5072.37
5115.24
5132.5
5116.48
5065.58
4984.31
4881.94
4770.1
4660.29
4561.87
4480.9
4419.8
4377.81
4351.69
4336.64
4327.15
4317.68
4303.15
4279.41
4243.42
4193.49
4129.23
4051.56
3962.5
3864.92
3762.26
3658.21
3556.34
3459.92
3371.64
3293.47
3226.66
3171.68