<?xml version="1.0"?>
<VTKFile type="ImageData" version="0.1" byte_order="LittleEndian">
  <ImageData Origin="0 0 0" Spacing="1e-05 1e-05 1e-05" WholeExtent="0 191 0 191 0 0">
    <Piece Extent="0 191 0 191 0 0">
      <CellData Scalars="T">
        <DataArray type="Float32" Name="T" format="ascii" NumberOfComponents="1">
386.944
15000
14996.4
14990.2
14980.4
14965.6
14943.9
14913.2
14871.1
14814.7
14740.9
14646.2
14527.2
14380.3
14202.2
13989.9
13740.9
13453.4
13126.3
12759.6
12354.2
11912.2
11436.5
10931.4
10401.6
9852.95
9291.5
8723.85
8156.69
7596.59
7049.89
6522.41
6019.4
5545.32
5103.83
4697.71
4328.82
3998.17
3705.95
3451.57
3233.8
3050.82
2900.39
2779.9
2686.52
2617.28
2569.18
2539.3
2524.84
2523.19
2532.02
2549.28
2573.26
2602.55
2636.1
2673.15
2713.22
2756.1
2801.73
2850.23
2901.77
2956.59
3014.87
3076.74
3142.24
3211.26
3283.59
3358.92
3436.83
3516.86
3598.58
3681.6
3765.62
3850.48
3936.17
4022.75
4110.38
4199.23
4289.37
4380.73
4472.98
4565.57
4657.61
4748.01
4835.5
4918.74
4996.47
5067.61
5131.39
5187.37
5235.49
5276.02
5309.46
5336.47
5357.71
5373.75
5385.01
5391.68
5393.81
5391.32
5384.13
5372.24
5355.86
5335.47
5311.84
5285.98
5259.13
5232.54
5207.43
5184.77
5165.2
5148.89
5135.53
5124.3
5113.98
5102.95
5089.44
5071.58
5047.62
5016.05
4975.72
4925.93
4866.52
4797.84
4720.73
4636.5
4546.82
4453.61
4358.94
4264.9
4173.5
4086.58
4005.69
3932.07
3866.62
3809.87
3762.02
3722.95
3692.29
3669.48
3653.85
3644.65
3641.16
3642.72
3648.76
3658.86
3672.75
3690.27
3711.4
3736.17
3764.65
3796.9
3832.85
3872.35
3915.03
3960.32
4007.43
4055.34
4102.85
4148.63
4191.24
4229.29
4261.45
4286.59
4303.83
4312.62
4312.79
4304.54
4288.48
4265.53
4236.94
4204.12
4168.61
4131.98
4095.65
4060.92
4028.77
3999.91
3974.66
3952.91
3934.12
3917.14
3899.98
3879.31
3849.4
3800.05
3712.55
3551.76
3250.6
2678.76
1577.64
310.792
481.069
15000
14996.4
14990.3
14980.5
14965.6
14944
14913.4
14871.3
14815
14741.3
14646.8
14527.9
14381.2
14203.3
13991.2
13742.4
13455.1
13128.1
12761.5
12356.2
11914.1
11438.5
10933.2
10403.2
9854.24
9292.44
8724.39
8156.77
7596.18
7048.94
6520.93
6017.37
5542.75
5100.74
4694.1
4324.73
3993.63
3700.97
3446.19
3228.05
3044.73
2894
2773.24
2679.62
2610.19
2561.96
2531.98
2517.47
2515.83
2524.71
2542.06
2566.17
2595.61
2629.33
2666.55
2706.78
2749.79
2795.52
2844.06
2895.61
2950.38
3008.55
3070.27
3135.57
3204.37
3276.46
3351.54
3429.2
3509.01
3590.54
3673.39
3757.3
3842.09
3927.74
4014.32
4102
4190.93
4281.18
4372.67
4465.11
4557.91
4650.22
4740.93
4828.79
4912.45
4990.65
5062.31
5126.63
5183.16
5231.83
5272.88
5306.8
5334.24
5355.85
5372.2
5383.7
5390.56
5392.82
5390.43
5383.31
5371.46
5355.1
5334.72
5311.06
5285.16
5258.22
5231.51
5206.25
5183.4
5163.59
5147.02
5133.37
5121.86
5111.23
5099.93
5086.15
5068.07
5043.92
5012.21
4971.79
4921.97
4862.56
4793.93
4716.91
4632.8
4543.26
4450.2
4355.69
4261.81
4170.55
4083.76
4002.97
3929.43
3864.04
3807.32
3759.48
3720.4
3689.73
3666.9
3651.25
3642.05
3638.57
3640.15
3646.25
3656.44
3670.43
3688.08
3709.35
3734.28
3762.93
3795.32
3831.41
3871
3913.74
3959.03
4006.08
4053.88
4101.21
4146.74
4189.07
4226.78
4258.59
4283.36
4300.24
4308.69
4308.56
4300.06
4283.81
4260.74
4232.09
4199.29
4163.85
4127.33
4091.16
4056.59
4024.63
3995.94
3970.83
3949.22
3930.52
3913.6
3896.47
3875.82
3845.94
3796.71
3709.59
3550.03
3252.91
2695.16
1649.56
304.399
477.908
15000
14996.4
14990.3
14980.6
14965.8
14944.2
14913.7
14871.8
14815.7
14742.2
14648
14529.4
14383.1
14205.6
13993.9
13745.5
13458.5
13131.8
12765.5
12360.3
11918.3
11442.5
10937
10406.7
9857.17
9294.71
8725.87
8157.35
7595.79
7047.52
6518.43
6013.79
5538.08
5095.01
4687.34
4316.98
3984.94
3691.41
3435.8
3216.89
3032.88
2881.51
2760.18
2666.08
2596.26
2547.71
2517.53
2502.9
2501.25
2510.21
2527.73
2552.07
2581.81
2615.84
2653.38
2693.92
2737.18
2783.1
2831.75
2883.3
2937.97
2995.94
3057.36
3122.28
3190.63
3262.25
3336.83
3414.01
3493.38
3574.52
3657.06
3740.72
3825.36
3910.93
3997.53
4085.28
4174.35
4264.81
4356.58
4449.37
4542.59
4635.42
4726.75
4815.32
4899.81
4978.94
5051.6
5116.99
5174.61
5224.36
5266.43
5301.31
5329.6
5351.94
5368.9
5380.88
5388.12
5390.67
5388.48
5381.5
5369.74
5353.44
5333.06
5309.37
5283.37
5256.27
5229.33
5203.76
5180.52
5160.25
5143.16
5128.95
5116.85
5105.64
5093.77
5079.48
5060.94
5036.42
5004.43
4963.83
4913.92
4854.53
4786
4709.16
4625.28
4536.02
4443.27
4349.08
4255.5
4164.54
4078
3997.42
3924.05
3858.77
3802.13
3754.31
3715.23
3684.53
3661.68
3646
3636.78
3633.32
3634.96
3641.17
3651.51
3665.71
3683.62
3705.18
3730.42
3759.37
3792.06
3828.39
3868.18
3911.01
3956.3
4003.24
4050.79
4097.76
4142.81
4184.56
4221.62
4252.71
4276.75
4292.92
4300.71
4299.99
4291
4274.39
4251.09
4222.34
4189.57
4154.28
4118
4082.13
4047.91
4016.3
3987.95
3963.15
3941.79
3923.28
3906.47
3889.41
3868.77
3838.92
3789.81
3703.13
3544.86
3251.15
2702.75
1683.37
304.462
476.332
15000
14996.4
14990.4
14980.7
14966
14944.5
14914.2
14872.6
14816.8
14743.6
14649.8
14531.8
14386
14209.1
13998
13750.2
13463.8
13137.7
12771.8
12366.9
11925
11449.2
10943.4
10412.6
9862.37
9298.99
8729.04
8159.24
7596.26
7046.47
6515.79
6009.52
5532.18
5087.49
4678.25
4306.37
3972.88
3677.97
3421.08
3200.97
3015.86
2863.48
2741.27
2646.39
2575.92
2526.86
2496.31
2481.47
2479.74
2488.77
2506.49
2531.14
2561.26
2595.73
2633.72
2674.68
2718.31
2764.5
2813.3
2864.86
2919.39
2977.07
3038.06
3102.43
3170.15
3241.06
3314.92
3391.4
3470.11
3550.66
3632.72
3716.03
3800.42
3885.87
3972.45
4060.31
4149.57
4240.33
4332.49
4425.77
4519.6
4613.17
4705.39
4795.01
4880.7
4961.18
5035.31
5102.24
5161.46
5212.78
5256.37
5292.65
5322.19
5345.62
5363.48
5376.2
5384.01
5387
5385.13
5378.38
5366.79
5350.58
5330.22
5306.48
5280.35
5253.03
5225.75
5199.72
5175.9
5154.96
5137.09
5122.04
5109.07
5096.98
5084.27
5069.2
5049.99
5024.91
4992.5
4951.62
4901.6
4842.23
4773.84
4697.26
4613.74
4524.91
4432.62
4338.9
4245.79
4155.26
4069.11
3988.86
3915.74
3850.65
3794.12
3746.36
3707.29
3676.57
3653.67
3637.95
3628.73
3625.3
3627.04
3633.4
3643.97
3658.48
3676.75
3698.73
3724.41
3753.8
3786.9
3823.59
3863.62
3906.58
3951.85
3998.59
4045.77
4092.19
4136.52
4177.4
4213.48
4243.53
4266.5
4281.62
4288.44
4286.87
4277.19
4260.05
4236.43
4207.56
4174.86
4139.8
4103.89
4068.49
4034.79
4003.72
3975.89
3951.55
3930.55
3912.32
3895.68
3878.68
3858.04
3828.17
3779.11
3692.78
3535.54
3244.46
2701.85
1687.01
304.49
476.289
15000
14996.5
14990.4
14980.8
14966.3
14945
14914.9
14873.6
14818.2
14745.5
14652.3
14534.9
14389.8
14213.8
14003.6
13756.7
13471.1
13145.8
12780.6
12376.2
11934.7
11458.9
10952.9
10421.6
9870.61
9306.15
8734.84
8163.44
7598.66
7046.91
6514.15
6005.72
5526.2
5079.33
4667.95
4293.99
3958.5
3661.69
3403
3181.21
2994.53
2840.73
2717.24
2621.25
2549.82
2500
2468.86
2453.64
2451.73
2460.77
2478.66
2503.63
2534.19
2569.17
2607.7
2649.17
2693.25
2739.77
2788.77
2840.35
2894.7
2952.03
3012.48
3076.15
3143.05
3213.07
3286
3361.56
3439.4
3519.19
3600.61
3683.42
3767.47
3852.73
3939.27
4027.22
4116.71
4207.81
4300.45
4394.34
4488.95
4583.45
4676.8
4767.75
4854.97
4937.16
5013.17
5082.09
5143.35
5196.7
5242.25
5280.35
5311.54
5336.39
5355.46
5369.16
5377.75
5381.34
5379.93
5373.52
5362.17
5346.11
5325.82
5302.05
5275.77
5248.15
5220.44
5193.81
5169.25
5147.4
5128.52
5112.36
5098.23
5084.98
5071.15
5055.06
5034.95
5009.13
4976.17
4934.93
4884.73
4825.38
4757.2
4680.96
4597.91
4509.63
4417.96
4324.87
4232.39
4142.45
4056.83
3977.02
3904.27
3839.44
3783.09
3735.43
3696.39
3665.65
3642.72
3626.97
3617.75
3614.37
3616.23
3622.8
3633.68
3648.57
3667.3
3689.8
3716.03
3745.97
3779.58
3816.69
3857.01
3900.11
3945.31
3991.76
4038.42
4084.08
4127.46
4167.19
4201.99
4230.68
4252.26
4266.03
4271.6
4268.94
4258.37
4240.6
4216.6
4187.6
4155.02
4120.3
4084.9
4050.15
4017.16
3986.82
3959.67
3935.94
3915.43
3897.54
3881.11
3864.17
3843.49
3813.51
3764.41
3678.27
3521.85
3232.88
2694.48
1686.89
304.5
476.691
15000
14996.5
14990.5
14981
14966.6
14945.5
14915.8
14874.8
14819.9
14747.8
14655.3
14538.8
14394.7
14219.7
14010.7
13765
13480.6
13156.4
12792.2
12388.6
11947.7
11472.2
10966.2
10434.4
9882.65
9317.05
8744.24
8171.02
7604.13
7050.04
6514.76
6003.69
5521.46
5071.84
4657.74
4281.11
3943.04
3643.74
3382.69
3158.69
2969.94
2814.25
2689.04
2591.52
2518.78
2467.87
2435.88
2420.05
2417.77
2426.68
2444.67
2469.91
2500.89
2536.4
2575.5
2617.54
2662.12
2709.03
2758.24
2809.85
2864.01
2920.92
2980.75
3043.62
3109.55
3178.5
3250.32
3324.76
3401.56
3480.4
3561.01
3643.18
3726.77
3811.75
3898.19
3986.2
4075.92
4167.4
4260.57
4355.16
4450.65
4546.25
4640.91
4733.42
4822.44
4906.66
4984.89
5056.17
5119.87
5175.66
5223.56
5263.87
5297.06
5323.67
5344.23
5359.16
5368.75
5373.13
5372.35
5366.41
5355.4
5339.58
5319.41
5295.62
5269.18
5241.24
5213.01
5185.66
5160.18
5137.24
5117.1
5099.58
5084.02
5069.34
5054.14
5036.77
5015.54
4988.81
4955.15
4913.46
4863.05
4803.73
4735.78
4659.97
4577.5
4489.92
4399.01
4306.72
4215.03
4125.83
4040.88
3961.65
3889.37
3824.9
3768.8
3721.29
3682.32
3651.6
3628.66
3612.9
3603.7
3600.4
3602.42
3609.24
3620.47
3635.81
3655.09
3678.19
3705.05
3735.62
3769.79
3807.36
3847.99
3891.18
3936.24
3982.29
4028.26
4072.98
4115.15
4153.47
4186.71
4213.73
4233.63
4245.78
4249.87
4245.92
4234.33
4215.82
4191.41
4162.32
4129.93
4095.68
4060.96
4027.02
3994.94
3965.51
3939.23
3916.25
3896.35
3878.88
3862.67
3845.77
3824.96
3794.77
3745.5
3659.43
3503.72
3216.91
2684.09
1692.42
304.497
477.355
15000
14996.5
14990.7
14981.3
14967
14946.2
14916.7
14876.2
14821.9
14750.5
14658.9
14543.4
14400.5
14226.8
14019.2
13775
13492.2
13169.4
12806.5
12404.2
11964.1
11489.2
10983.4
10451.5
9899.08
9332.39
8758.06
8182.91
7613.71
7057
6518.84
6004.69
5519.25
5066.36
4648.96
4269.07
3927.8
3625.43
3361.43
3134.62
2943.26
2785.14
2657.71
2558.21
2483.74
2431.36
2398.18
2381.45
2378.55
2387.12
2405.03
2430.43
2461.76
2497.74
2537.4
2580.01
2625.11
2672.42
2721.88
2773.52
2827.48
2883.95
2943.09
3005.05
3069.91
3137.65
3208.19
3281.36
3356.93
3434.65
3514.29
3595.67
3678.66
3763.26
3849.51
3937.53
4027.43
4119.28
4213
4308.33
4404.78
4501.56
4597.68
4691.91
4782.94
4869.43
4950.16
5024.12
5090.58
5149.15
5199.76
5242.62
5278.14
5306.81
5329.15
5345.58
5356.41
5361.78
5361.79
5356.48
5345.96
5330.48
5310.51
5286.76
5260.18
5231.88
5203.07
5174.89
5148.34
5124.11
5102.51
5083.38
5066.14
5049.77
5032.94
5014.08
4991.53
4963.71
4929.23
4886.99
4836.33
4777.03
4709.36
4634.06
4552.27
4465.51
4375.51
4284.18
4193.44
4105.15
4021.01
3942.51
3870.82
3806.82
3751.05
3703.77
3664.93
3634.27
3611.35
3595.62
3586.46
3583.27
3585.48
3592.6
3604.23
3620.08
3639.95
3663.71
3691.26
3722.5
3757.26
3795.28
3836.19
3879.42
3924.24
3969.74
4014.86
4058.41
4099.14
4135.8
4167.19
4192.29
4210.26
4220.56
4222.96
4217.58
4204.86
4185.57
4160.74
4131.61
4099.53
4065.89
4032
3999.08
3968.09
3939.77
3914.52
3892.44
3873.24
3856.25
3840.28
3823.37
3802.37
3771.85
3722.25
3636.13
3481.09
3196.48
2668.27
1679.8
304.422
479.118
15000
14996.6
14990.8
14981.5
14967.5
14946.9
14917.8
14877.8
14824.1
14753.6
14662.9
14548.6
14407
14234.9
14028.9
13786.5
13505.5
13184.6
12823.4
12422.6
11983.9
11510
11004.7
10472.9
9920.15
9352.56
8776.81
8199.74
7628.16
7068.65
6527.35
6009.78
5520.71
5064.06
4642.84
4259.12
3914.07
3608
3340.44
3110.25
2915.68
2754.57
2624.4
2522.4
2445.72
2391.43
2356.67
2338.67
2334.84
2342.8
2360.4
2385.76
2417.28
2453.63
2493.76
2536.9
2582.49
2630.2
2679.9
2731.57
2785.33
2841.33
2899.75
2960.75
3024.45
3090.89
3160.03
3231.77
3305.95
3382.39
3460.89
3541.32
3623.58
3707.65
3793.6
3881.53
3971.55
4063.71
4157.96
4254.03
4351.44
4449.46
4547.1
4643.17
4736.35
4825.28
4908.72
4985.58
5055.07
5116.7
5170.31
5216.02
5254.17
5285.21
5309.61
5327.8
5340.1
5346.7
5347.72
5343.22
5333.34
5318.33
5298.67
5275.03
5248.34
5219.68
5190.24
5161.15
5133.41
5107.73
5084.45
5063.5
5044.35
5026.06
5007.37
4986.78
4962.73
4933.67
4898.23
4855.37
4804.42
4745.14
4677.79
4603.06
4522.07
4436.25
4347.31
4257.09
4167.45
4080.22
3997.07
3919.42
3848.46
3785.04
3729.72
3682.75
3644.11
3613.58
3590.73
3575.07
3566
3562.96
3565.39
3572.84
3584.91
3601.3
3621.81
3646.26
3674.51
3706.42
3741.75
3780.2
3821.31
3864.48
3908.93
3953.74
3997.81
4039.99
4079.05
4113.79
4143.1
4166.03
4181.85
4190.11
4190.68
4183.75
4169.84
4149.76
4124.56
4095.47
4063.82
4030.93
3998.07
3966.34
3936.65
3909.61
3885.56
3864.5
3846.11
3829.64
3813.9
3796.94
3775.62
3744.64
3694.58
3608.28
3453.82
3171.23
2646.5
1658.75
304.329
479.905
15000
14996.6
14990.9
14981.8
14967.9
14947.6
14918.9
14879.4
14826.4
14756.7
14667.1
14554
14414
14243.5
14039.5
13799
13520.1
13201.4
12842.3
12443.5
12006.5
11534
11029.7
10498.5
9945.65
9377.47
8800.54
8221.7
7647.8
7085.47
6540.89
6019.68
5526.68
5065.88
4640.38
4252.32
3902.94
3592.61
3320.91
3086.72
2888.37
2723.69
2590.21
2485.2
2405.8
2349.13
2312.32
2292.64
2287.5
2294.5
2311.49
2336.55
2368.04
2404.57
2445.05
2488.6
2534.62
2582.69
2632.61
2684.31
2737.86
2793.39
2851.08
2911.09
2973.57
3038.62
3106.27
3176.46
3249.13
3324.13
3401.34
3480.65
3562.01
3645.41
3730.92
3818.63
3908.66
4001.04
4095.73
4192.48
4290.84
4390.08
4489.26
4587.2
4682.59
4774.07
4860.34
4940.27
5012.98
5077.89
5134.74
5183.56
5224.61
5258.28
5285.02
5305.25
5319.29
5327.36
5329.61
5326.13
5317.07
5302.71
5283.48
5260.05
5233.31
5204.31
5174.22
5144.15
5115.12
5087.85
5062.74
5039.77
5018.5
4998.07
4977.32
4954.83
4929.09
4898.64
4862.15
4818.59
4767.3
4708.05
4641.05
4566.96
4486.85
4402.1
4314.35
4225.38
4137.01
4051
3968.97
3892.33
3822.24
3759.53
3704.76
3658.2
3619.86
3589.52
3566.82
3551.27
3542.34
3539.49
3542.19
3550
3562.53
3579.49
3600.64
3625.78
3654.73
3687.27
3723.13
3761.93
3803.15
3846.14
3890.07
3934
3976.83
4017.41
4054.57
4087.18
4114.19
4134.75
4148.24
4154.32
4152.95
4144.41
4129.29
4108.44
4082.93
4053.99
4022.89
3990.92
3959.26
3928.92
3900.69
3875.11
3852.4
3832.48
3814.96
3799.05
3783.52
3766.44
3744.72
3713.13
3662.45
3575.84
3421.9
3141.41
2622
1650.59
304.246
480.739
15000
14996.7
14991
14982
14968.4
14948.4
14920
14881
14828.7
14759.9
14671.3
14559.5
14421
14252.3
14050.2
13812
13535.4
13219.1
12862.4
12465.9
12031
11560.4
11057.6
10527.3
9974.92
9406.55
8828.8
8248.49
7672.48
7107.44
6559.62
6034.69
5537.58
5072.38
4642.26
4249.46
3895.29
3580.19
3303.81
3065.09
2862.38
2693.59
2556.25
2447.68
2365.04
2305.48
2266.16
2244.34
2237.46
2243.1
2259.11
2283.55
2314.72
2351.21
2391.82
2435.64
2481.96
2530.32
2580.41
2632.12
2685.46
2740.52
2797.47
2856.48
2917.73
2981.35
3047.43
3115.99
3187.01
3260.44
3336.2
3414.24
3494.53
3577.08
3661.98
3749.32
3839.2
3931.67
4026.69
4124.02
4223.23
4323.63
4424.3
4524.08
4621.68
4715.72
4804.88
4887.97
4964.02
5032.36
5092.65
5144.8
5188.99
5225.56
5254.91
5277.44
5293.5
5303.31
5307.04
5304.81
5296.8
5283.25
5264.61
5241.51
5214.81
5185.52
5154.78
5123.71
5093.31
5064.35
5037.27
5012.13
4988.57
4965.83
4942.84
4918.27
4890.71
4858.74
4821.09
4776.77
4725.12
4665.89
4599.27
4525.89
4446.74
4363.17
4276.73
4189.15
4102.19
4017.54
3936.79
3861.31
3792.21
3730.34
3676.25
3630.21
3592.26
3562.2
3539.72
3524.36
3515.63
3513
3516.01
3524.21
3537.22
3554.76
3576.54
3602.35
3631.95
3665.08
3701.38
3740.42
3781.62
3824.27
3867.52
3910.37
3951.75
3990.54
4025.59
4055.85
4080.37
4098.4
4109.43
4113.22
4109.85
4099.67
4083.35
4061.78
4036.05
4007.37
3976.98
3946.09
3915.79
3887
3860.4
3836.41
3815.15
3796.47
3779.87
3764.53
3749.18
3731.9
3709.65
3677.32
3625.89
3538.87
3385.42
3107.36
2594.17
1635.4
304.125
482.865
15000
14996.7
14991.2
14982.3
14968.7
14949
14921
14882.5
14830.8
14762.7
14675.2
14564.7
14427.7
14260.7
14060.7
13824.7
13550.5
13236.8
12882.7
12488.8
12056.4
11588
11087.1
10558.3
10006.8
9438.78
8860.67
8279.3
7701.54
7134.07
6583.19
6054.63
5553.41
5083.71
4648.78
4250.97
3891.67
3571.42
3289.92
3046.18
2838.63
2665.21
2523.5
2410.85
2324.47
2261.51
2219.18
2194.75
2185.67
2189.53
2204.15
2227.59
2258.11
2294.24
2334.74
2378.61
2425.08
2473.59
2523.78
2575.46
2628.56
2683.16
2739.38
2797.4
2857.42
2919.59
2984.07
3050.93
3120.22
3191.96
3266.13
3342.72
3421.76
3503.28
3587.38
3674.15
3763.71
3856.1
3951.28
4049.04
4148.96
4250.39
4352.44
4453.97
4553.71
4650.27
4742.31
4828.57
4908.03
4979.91
5043.77
5099.43
5146.98
5186.69
5218.91
5244.03
5262.38
5274.21
5279.69
5278.98
5272.24
5259.73
5241.85
5219.23
5192.67
5163.17
5131.82
5099.74
5067.94
5037.22
5008.08
4980.66
4954.67
4929.48
4904.11
4877.34
4847.82
4814.23
4775.35
4730.21
4678.17
4618.96
4552.76
4480.13
4402.03
4319.72
4234.72
4148.65
4063.22
3980.08
3900.75
3826.55
3758.59
3697.69
3644.39
3598.99
3561.52
3531.85
3509.66
3494.56
3486.08
3483.74
3487.08
3495.69
3509.2
3527.29
3549.69
3576.12
3606.31
3639.93
3676.57
3715.72
3756.76
3798.9
3841.26
3882.85
3922.58
3959.37
3992.12
4019.86
4041.73
4057.1
4065.57
4067.01
4061.6
4049.8
4032.33
4010.12
3984.28
3955.98
3926.43
3896.76
3867.96
3840.86
3816.01
3793.71
3774
3756.59
3740.93
3726.13
3710.9
3693.34
3670.45
3637.25
3584.95
3497.43
3344.5
3068.98
2561.87
1615.22
303.981
483.733
15000
14996.8
14991.2
14982.4
14969.1
14949.5
14921.8
14883.7
14832.5
14765.2
14678.6
14569.2
14433.5
14268.2
14070.1
13836.3
13564.5
13253.4
12902.1
12510.9
12081.3
11615.4
11116.9
10590
10039.9
9472.72
8894.79
8312.9
7733.87
7164.39
6610.81
6078.9
5573.74
5099.61
4659.87
4256.94
3892.34
3566.66
3279.73
3030.62
2817.83
2639.34
2492.81
2375.62
2285.01
2218.19
2172.37
2144.86
2133.1
2134.72
2147.53
2169.54
2199.03
2234.46
2274.54
2318.21
2364.62
2413.13
2463.3
2514.86
2567.7
2621.83
2677.33
2734.39
2793.18
2853.92
2916.77
2981.89
3049.38
3119.32
3191.77
3266.77
3344.38
3424.67
3507.76
3593.77
3682.79
3774.88
3870.02
3968.01
4068.46
4170.75
4274.01
4377.15
4478.89
4577.88
4672.71
4762.12
4844.98
4920.45
4987.97
5047.28
5098.38
5141.45
5176.8
5204.78
5225.71
5239.85
5247.38
5248.45
5243.24
5231.99
5215.08
5193.11
5166.84
5137.23
5105.34
5072.29
5039.1
5006.59
4975.34
4945.56
4917.07
4889.33
4861.48
4832.4
4800.84
4765.56
4725.38
4679.38
4626.92
4567.74
4501.97
4430.14
4353.15
4272.2
4188.71
4104.27
4020.49
3938.97
3861.17
3788.39
3721.69
3661.87
3609.49
3564.83
3527.96
3498.76
3476.96
3462.18
3454.02
3452.01
3455.72
3464.76
3478.76
3497.4
3520.36
3547.35
3578.05
3612.05
3648.89
3688.01
3728.7
3770.16
3811.45
3851.58
3889.47
3924.06
3954.34
3979.41
3998.52
4011.13
4016.97
4016.04
4008.61
3995.23
3976.67
3953.92
3928.07
3900.28
3871.69
3843.36
3816.19
3790.86
3767.83
3747.29
3729.13
3713
3698.24
3683.93
3668.74
3650.79
3627.14
3592.96
3539.69
3451.62
3299.22
3026.35
2525.26
1585.36
303.797
482.569
15000
14996.8
14991.3
14982.6
14969.3
14949.9
14922.4
14884.6
14833.8
14767
14681.1
14572.6
14438.2
14274.3
14077.8
13846
13576.5
13267.9
12919.3
12531
12104.2
11641.2
11145.3
10620.7
10072.6
9506.75
8929.58
8347.75
7768.04
7197.12
6641.34
6106.51
5597.77
5119.48
4675.09
4267.13
3897.2
3566.02
3273.49
3018.79
2800.47
2616.6
2464.88
2342.76
2247.52
2176.39
2126.64
2095.59
2080.71
2079.62
2090.16
2110.33
2138.36
2172.71
2212.03
2255.19
2301.28
2349.59
2399.59
2450.95
2503.46
2557.09
2611.89
2667.99
2725.59
2784.91
2846.14
2909.5
2975.14
3043.21
3113.82
3187.08
3263.09
3341.96
3423.83
3508.83
3597.08
3688.65
3783.52
3881.51
3982.25
4085.17
4189.43
4293.97
4397.55
4498.78
4596.29
4688.74
4774.96
4854.02
4925.26
4988.33
5043.13
5089.76
5128.48
5159.6
5183.4
5200.14
5210.01
5213.16
5209.75
5200.01
5184.3
5163.17
5137.36
5107.77
5075.46
5041.51
5006.97
4972.71
4939.34
4907.18
4876.14
4845.8
4815.41
4783.96
4750.3
4713.27
4671.75
4624.86
4571.97
4512.82
4447.5
4376.51
4300.68
4221.13
4139.24
4056.51
3974.47
3894.68
3818.52
3747.27
3681.93
3623.31
3571.94
3528.13
3491.95
3463.31
3441.98
3427.61
3419.82
3418.19
3422.3
3431.78
3446.26
3465.4
3488.88
3516.36
3547.45
3581.72
3618.62
3657.54
3697.71
3738.29
3778.33
3816.8
3852.66
3884.91
3912.57
3934.85
3951.1
3960.9
3964.1
3960.81
3951.4
3936.5
3916.95
3893.76
3868.01
3840.84
3813.31
3786.41
3760.92
3737.43
3716.24
3697.44
3680.81
3665.88
3651.95
3638.01
3622.75
3604.28
3579.76
3544.49
3490.18
3401.54
3249.7
2979.49
2484.43
1558.03
303.639
481.33
15000
14996.8
14991.3
14982.6
14969.4
14950.1
14922.7
14885
14834.5
14768.1
14682.7
14574.9
14441.3
14278.5
14083.4
13853.3
13585.8
13279.4
12933.3
12547.8
12123.9
11663.8
11170.8
10648.8
10103.1
9539.16
8963.34
8382.21
7802.48
7230.77
6673.41
6136.23
5624.44
5142.43
4693.74
4281.01
3905.93
3569.33
3271.2
3010.82
2786.84
2597.39
2440.24
2312.89
2212.69
2136.9
2082.82
2047.82
2029.38
2025.16
2032.98
2050.86
2077.02
2109.87
2148.04
2190.36
2235.84
2283.71
2333.35
2384.36
2436.46
2489.54
2543.62
2598.79
2655.23
2713.15
2772.79
2834.39
2898.15
2964.29
3032.97
3104.35
3178.6
3255.86
3336.3
3420.06
3507.3
3598.09
3692.42
3790.14
3890.93
3994.22
4099.22
4204.92
4310.09
4413.38
4513.38
4608.73
4698.21
4780.82
4855.8
4922.69
4981.32
5031.7
5074.02
5108.52
5135.48
5155.12
5167.63
5173.15
5171.82
5163.86
5149.6
5129.53
5104.37
5074.98
5042.38
5007.66
4971.86
4935.91
4900.48
4865.96
4832.38
4799.44
4766.49
4732.64
4696.85
4658.04
4615.16
4567.36
4514.03
4454.9
4390.05
4319.92
4245.27
4167.19
4086.95
4005.98
3925.76
3847.76
3773.34
3703.69
3639.81
3582.47
3532.22
3489.34
3453.94
3425.95
3405.16
3391.27
3383.9
3382.68
3387.22
3397.14
3412.08
3431.7
3455.63
3483.5
3514.88
3549.27
3586.08
3624.63
3664.11
3703.63
3742.21
3778.86
3812.54
3842.28
3867.22
3886.62
3899.96
3906.94
3907.51
3901.9
3890.58
3874.26
3853.82
3830.29
3804.75
3778.29
3751.91
3726.48
3702.7
3681.02
3661.64
3644.49
3629.28
3615.43
3602.17
3588.46
3572.96
3553.83
3528.31
3491.88
3436.49
3347.28
3196.07
2928.63
2439.48
1520.95
303.504
480.324
15000
14996.8
14991.3
14982.6
14969.4
14950
14922.7
14885.1
14834.6
14768.3
14683.1
14575.7
14442.6
14280.6
14086.6
13857.7
13591.8
13287.3
12943.5
12560.5
12139.4
11682.2
11192.1
10673.1
10130
9568.43
8994.5
8414.69
7835.6
7263.8
6705.57
6166.75
5652.54
5167.39
4714.93
4297.85
3917.97
3576.2
3272.65
3006.68
2777.04
2581.95
2419.25
2286.5
2181.09
2100.36
2041.64
2002.33
1979.96
1972.19
1976.87
1992.03
2015.88
2046.82
2083.46
2124.56
2169.1
2216.24
2265.29
2315.77
2367.34
2419.81
2473.14
2527.37
2582.67
2639.23
2697.31
2757.16
2819.05
2883.22
2949.89
3019.3
3091.63
3167.1
3245.89
3328.2
3414.16
3503.9
3597.42
3694.6
3795.14
3898.51
4003.98
4110.56
4217.06
4322.14
4424.42
4522.49
4615.1
4701.17
4779.86
4850.62
4913.18
4967.46
5013.57
5051.7
5082.09
5104.93
5120.38
5128.56
5129.61
5123.71
5111.14
5092.39
5068.1
5039.11
5006.41
4971.07
4934.16
4896.63
4859.23
4822.43
4786.37
4750.85
4715.36
4679.13
4641.21
4600.61
4556.35
4507.63
4453.86
4394.76
4330.37
4261.1
4187.66
4111.06
4032.49
3953.33
3874.98
3798.82
3726.18
3658.2
3595.85
3539.87
3490.8
3448.94
3414.4
3387.12
3366.94
3353.57
3346.68
3345.91
3350.88
3361.24
3376.62
3396.65
3420.96
3449.12
3480.67
3515.05
3551.62
3589.63
3628.23
3666.51
3703.49
3738.14
3769.5
3796.64
3818.76
3835.23
3845.65
3849.81
3847.81
3839.96
3826.83
3809.19
3787.98
3764.22
3738.99
3713.3
3688.1
3664.17
3642.06
3622.12
3604.42
3588.8
3574.82
3561.86
3549.06
3535.36
3519.43
3499.48
3472.85
3435.17
3378.68
3288.97
3138.51
2874.12
2392.34
1492.61
303.403
480.608
15000
14996.8
14991.3
14982.5
14969.2
14949.8
14922.4
14884.6
14834.1
14767.7
14682.5
14575.1
14442.3
14280.6
14087.1
13859.1
13594.4
13291.4
12949.5
12568.7
12150
11695.6
11208.4
10692.4
10152.2
9593.35
9021.78
8443.84
7866.04
7294.86
6736.5
6196.77
5680.87
5193.29
4737.68
4316.83
3932.64
3586.12
3277.47
3006.16
2771.02
2570.36
2402.11
2263.89
2153.17
2067.31
2003.72
1959.82
1933.19
1921.51
1922.67
1934.7
1955.82
1984.43
2019.11
2058.62
2101.86
2147.96
2196.15
2245.89
2296.77
2348.52
2401.03
2454.32
2508.49
2563.72
2620.27
2678.41
2738.43
2800.61
2865.24
2932.57
3002.88
3076.4
3153.35
3233.97
3318.42
3406.84
3499.27
3595.61
3695.6
3798.75
3904.37
4011.53
4119.06
4225.67
4329.97
4430.55
4526.12
4615.52
4697.86
4772.5
4839.04
4897.34
4947.42
4989.41
5023.48
5049.79
5068.47
5079.62
5083.33
5079.77
5069.19
5052.01
5028.84
5000.47
4967.89
4932.13
4894.29
4855.34
4816.11
4777.14
4738.7
4700.69
4662.72
4624.14
4584.11
4541.74
4496.11
4446.46
4392.24
4333.15
4269.22
4200.81
4128.57
4053.45
3976.57
3899.22
3822.75
3748.47
3677.64
3611.37
3550.58
3496.02
3448.18
3407.38
3373.75
3347.25
3327.73
3314.93
3308.55
3308.24
3313.66
3324.44
3340.22
3360.61
3385.22
3413.58
3445.17
3479.4
3515.56
3552.86
3590.43
3627.31
3662.51
3695.05
3723.97
3748.41
3767.67
3781.21
3788.72
3790.13
3785.62
3775.63
3760.81
3741.99
3720.12
3696.24
3671.39
3646.54
3622.53
3600.04
3579.53
3561.2
3545.01
3530.69
3517.71
3505.37
3492.77
3478.84
3462.26
3441.31
3413.43
3374.45
3316.9
3226.78
3077.29
2816.46
2343.29
1462.82
303.342
480.651
15000
14996.7
14991.2
14982.4
14969
14949.4
14921.8
14883.9
14833
14766.4
14681
14573.3
14440.3
14278.6
14085.3
13857.7
13593.7
13291.8
12951.2
12572.2
12155.8
11703.9
11219.4
10706.3
10169.1
9613.18
9044.31
8468.71
7892.77
7322.85
6765.07
6225.19
5708.37
5219.1
4761.07
4337.13
3949.24
3598.5
3285.21
3008.93
2768.58
2562.58
2388.9
2245.28
2129.21
2038.16
1969.54
1920.86
1889.71
1873.83
1871.12
1879.64
1897.64
1923.51
1955.84
1993.34
2034.92
2079.62
2126.67
2175.42
2225.4
2276.28
2327.9
2380.19
2433.22
2487.15
2542.21
2598.67
2656.85
2717.05
2779.61
2844.82
2913
2984.43
3059.38
3138.1
3220.81
3307.66
3398.72
3493.93
3593.06
3695.68
3801.14
3908.55
4016.81
4124.65
4230.69
4333.53
4431.85
4524.44
4610.33
4688.8
4759.36
4821.77
4875.97
4922
4959.98
4990.01
5012.2
5026.59
5033.27
5032.34
5024.02
5008.68
4986.9
4959.43
4927.2
4891.26
4852.69
4812.53
4771.65
4730.68
4689.99
4649.59
4609.23
4568.37
4526.28
4482.16
4435.17
4384.6
4329.91
4270.81
4207.32
4139.75
4068.69
3995.03
3919.82
3844.27
3769.67
3697.26
3628.25
3563.7
3504.5
3451.36
3404.79
3365.1
3332.42
3306.73
3287.9
3275.7
3269.85
3270.02
3275.87
3287.05
3303.19
3323.88
3348.7
3377.14
3408.66
3442.59
3478.19
3514.63
3551
3586.33
3619.63
3649.94
3676.34
3698.04
3714.42
3725.03
3729.69
3728.43
3721.54
3709.55
3693.17
3673.29
3650.9
3627
3602.6
3578.61
3555.77
3534.66
3515.6
3498.7
3483.8
3470.5
3458.22
3446.19
3433.49
3419.04
3401.57
3379.44
3350.21
3309.91
3251.34
3160.97
3012.76
2756.33
2294.65
1444.55
303.306
479.871
15000
14996.7
14991.1
14982.2
14968.6
14948.9
14921
14882.8
14831.6
14764.6
14678.6
14570.6
14437.1
14275.1
14081.5
13853.9
13590.2
13288.8
12949.2
12571.6
12156.9
11707.2
11225.3
10714.9
10180.7
9627.73
9061.75
8488.83
7915.2
7347.09
6790.53
6251.19
5734.19
5243.99
4784.31
4358
3967.09
3612.77
3295.4
3014.63
2769.49
2558.45
2379.61
2230.73
2109.42
2013.18
1939.49
1885.91
1850.06
1829.74
1822.88
1827.58
1842.09
1864.84
1894.4
1929.5
1969.02
2011.98
2057.54
2105.02
2153.88
2203.72
2254.32
2305.54
2357.41
2410.04
2463.63
2518.46
2574.83
2633.08
2693.57
2756.64
2822.63
2891.87
2964.67
3041.32
3122.07
3207.11
3296.54
3390.34
3488.31
3590.09
3695.06
3802.4
3911.06
4019.81
4127.3
4232.14
4332.97
4428.57
4517.89
4600.11
4674.68
4741.25
4799.66
4849.89
4891.97
4925.96
4951.9
4969.82
4979.73
4981.71
4975.94
4962.74
4942.62
4916.32
4884.72
4848.86
4809.83
4768.68
4726.36
4683.59
4640.8
4598.16
4555.52
4512.46
4468.38
4422.54
4374.21
4322.71
4267.54
4208.42
4145.33
4078.55
4008.64
3936.39
3862.81
3789.04
3716.27
3645.71
3578.5
3515.65
3458.03
3406.32
3361.03
3322.45
3290.73
3265.87
3247.75
3236.16
3230.85
3231.49
3237.76
3249.31
3265.75
3286.67
3311.6
3340.03
3371.33
3404.83
3439.73
3475.16
3510.19
3543.84
3575.13
3603.12
3626.94
3645.88
3659.39
3667.14
3669.04
3665.22
3656.09
3642.24
3624.46
3603.68
3580.88
3557.06
3533.17
3510.03
3488.31
3468.46
3450.7
3435
3421.1
3408.53
3396.61
3384.56
3371.42
3356.17
3337.57
3314.08
3283.42
3241.79
3182.3
3091.9
2945.37
2694.04
2244.58
1419.02
303.228
478.396
15000
14996.7
14991
14982
14968.3
14948.3
14920.2
14881.6
14829.9
14762.4
14675.9
14567.2
14433.1
14270.5
14076.4
13848.5
13584.6
13283.4
12944.4
12567.7
12154.3
11706.4
11226.6
10718.8
10187.4
9637.33
9074.31
8504.23
7933.21
7367.33
6812.51
6274.31
5757.8
5267.4
4806.79
4378.85
3985.65
3628.41
3307.58
3022.89
2773.44
2557.79
2374.11
2220.26
2093.89
1992.57
1913.84
1855.31
1814.67
1789.75
1778.51
1779.1
1789.81
1809.08
1835.51
1867.82
1904.9
1945.73
1989.46
2035.36
2082.83
2131.43
2180.84
2230.89
2281.55
2332.87
2385.02
2438.25
2492.86
2549.2
2607.64
2668.56
2732.32
2799.31
2869.86
2944.3
3022.91
3105.93
3193.49
3285.6
3382.14
3482.76
3586.94
3693.89
3802.62
3911.96
4020.59
4127.14
4230.24
4328.62
4421.2
4507.08
4585.6
4656.33
4719.02
4773.56
4819.9
4858.04
4887.96
4909.63
4923.04
4928.21
4925.27
4914.48
4896.33
4871.48
4840.8
4805.3
4766.08
4724.21
4680.7
4636.32
4591.65
4546.93
4502.14
4456.98
4410.96
4363.46
4313.8
4261.38
4205.71
4146.53
4083.8
4017.76
3948.93
3878.05
3806.03
3733.97
3662.98
3594.22
3528.76
3467.58
3411.51
3361.22
3317.18
3279.71
3248.95
3224.92
3207.51
3196.53
3191.74
3192.83
3199.49
3211.36
3228.05
3249.11
3274.07
3302.36
3333.34
3366.26
3400.32
3434.61
3468.17
3500.03
3529.21
3554.81
3576.03
3592.22
3602.92
3607.89
3607.13
3600.91
3589.69
3574.15
3555.14
3533.6
3510.52
3486.86
3463.52
3441.23
3420.55
3401.82
3385.15
3370.39
3357.2
3345.01
3333.11
3320.68
3306.79
3290.45
3270.51
3245.53
3213.38
3170.47
3110.21
3020.01
2875.49
2629.39
2189.85
1376.28
303.152
476.44
15000
14996.6
14990.9
14981.8
14967.9
14947.7
14919.3
14880.4
14828.3
14760.2
14673
14563.6
14428.8
14265.5
14070.7
13842.2
13577.9
13276.7
12937.8
12561.6
12149.2
11702.6
11224.7
10719
10190.1
9642.79
9082.64
8515.44
7947.15
7383.76
6831.05
6294.47
5779.01
5289.02
4828.15
4399.28
4004.47
3645.01
3321.37
3033.37
2780.15
2560.38
2372.28
2213.78
2082.61
1976.4
1892.75
1829.32
1783.86
1754.23
1738.46
1734.72
1741.36
1756.84
1779.78
1808.94
1843.2
1881.53
1923.08
1967.06
2012.86
2059.96
2108.01
2156.76
2206.11
2256.08
2306.8
2358.46
2411.37
2465.85
2522.29
2581.08
2642.62
2707.32
2775.54
2847.66
2924
3004.82
3090.3
3180.49
3275.33
3374.52
3477.59
3583.83
3692.32
3801.93
3911.39
4019.34
4124.43
4225.36
4321
4410.38
4492.76
4567.61
4634.6
4693.51
4744.23
4786.67
4820.76
4846.4
4863.54
4872.15
4872.31
4864.22
4848.32
4825.22
4795.75
4760.91
4721.78
4679.47
4635.01
4589.28
4542.92
4496.29
4449.5
4402.36
4354.49
4305.36
4254.4
4201.04
4144.85
4085.56
4023.13
3957.78
3889.96
3820.36