<?xml version="1.0"?>
<VTKFile type="PolyData" version="0.1" byte_order="LittleEndian">
  <PolyData>
    <Piece NumberOfPoints="50000" NumberOfVerts="50000" NumberOfLines="0" NumberOfStrips="0" NumberOfPolys="0">
      <Points>
        <DataArray type="Float32" NumberOfComponents="3" format="ascii">
0.255335 0.00561809 0
-0.242003 0.00206486 0
0.247286 -0.00150645 0
0.258272 -0.00118005 0
-0.210439 0.00423566 0
-0.176732 0.00161256 0
0.0849321 -0.0162878 0
-0.217621 0.000214891 0
0.075007 -0.0126566 0
-0.0169135 0.00594365 0
0.193907 -0.00785674 0
0.246472 0.00513863 0
-0.14165 0.00472561 0
-0.10038 -0.0153347 0
-0.26435 0.00168341 0
0.199888 0.00798421 0
-0.0367076 -0.0011349 0
0.256117 0.00121794 0
0.0971762 0.00111092 0
-0.242282 0.0026007 0
-0.253916 0.00375424 0
0.221873 0.00448004 0
-0.250541 0.00186274 0
0.249807 0.000162795 0
0.159067 -0.00791201 0
0.185908 0.00842823 0
-0.248319 -0.00457853 0
0.256544 -0.0019932 0
-0.177629 0.0152177 0
-0.261611 0.00603231 0
-0.196756 0.00794115 0
-0.182766 -0.0102925 0
0.254136 0.000686476 0
0.255719 -0.000498568 0
0.048814 0.00348551 0
0.260065 -0.000873347 0
0.0790415 0.00115934 0
-0.259499 0.00185466 0
-0.242623 -0.00310354 0
-0.269732 -0.00135739 0
0.187392 0.00858114 0
0.19815 0.00412046 0
-0.247869 -0.00126008 0
0.252528 0.000626892 0
0.261541 0.00101462 0
-0.255169 0.00582054 0
0.248858 0.00334229 0
0.12753 -0.0093334 0
0.245612 0.000395834 0
0.251474 0.000292063 0
0.105356 0.0139294 0
-0.250228 -0.000412917 0
-0.17377 0.00627467 0
0.248237 0.00205545 0
-0.246301 0.00183072 0
-0.2625 0.0019285 0
0.255613 -0.00062383 0
0.103176 0.00763321 0
0.191043 0.00503863 0
0.263872 -0.00292981 0
0.215358 0.00325875 0
0.258363 0.00189616 0
0.0569884 -0.0202537 0
0.263789 -0.000927046 0
-0.0846083 0.0110412 0
-0.245588 0.00120476 0
0.250732 -0.000374061 0
0.257506 -0.000204365 0
0.266316 0.00278966 0
0.184422 0.000843461 0
-0.248405 0.00238402 0
0.250461 0.00261064 0
0.137034 0.00102787 0
0.139775 0.00458868 0
0.119267 0.00352339 0
-0.252154 -0.00129713 0
0.218703 0.00818627 0
-0.239274 0.00306956 0
0.192984 0.00461398 0
-0.26192 0.00135771 0
-0.131634 -0.0211361 0
-0.25664 0.00311921 0
0.23683 0.00349191 0
-0.249518 0.000733053 0
0.263547 -0.00278555 0
-0.250064 0.00243921 0
0.263973 -0.00272728 0
-0.112307 -0.00511289 0
-0.108611 0.0148791 0
-0.252351 -0.00421227 0
0.248247 0.00448741 0
-0.246823 -7.41572e-05 0
0.249323 -0.000897298 0
-0.169847 0.012711 0
-0.0253894 -0.0135191 0
-0.221919 0.00366574 0
0.249022 0.00579033 0
-0.25438 0.00239641 0
-0.268369 0.00498412 0
-0.266047 -0.000316382 0
-0.222937 -0.0044596 0
-0.247762 -0.0032563 0
0.265645 -0.000144035 0
-0.106984 -0.0127345 0
0.267524 -6.12202e-05 0
0.218844 0.00829666 0
0.161433 0.00454399 0
0.0130429 0.00526739 0
0.245796 0.00313855 0
-0.251109 -0.00261374 0
-0.189035 0.0127481 0
-0.25467 0.00233776 0
-0.21718 0.00698821 0
183.69 265.717 0
0.167719 0.00494073 0
-0.25095 0.00259306 0
-0.260255 0.00312872 0
4.7112 6.44467 0
-0.252884 0.0013713 0
-0.0125818 -0.00515879 0
0.256642 -0.000611507 0
-0.243977 -0.0020789 0
0.173252 -0.00190282 0
-0.233075 0.005009 0
0.25184 -0.000148546 0
0.244814 -0.000310386 0
0.0804554 0.0153806 0
0.258597 0.00307961 0
-0.225902 -0.00402312 0
0.195224 -0.000281251 0
0.260208 -0.00171125 0
0.258087 2.8363e-05 0
-0.267216 0.00080266 0
-0.222871 0.00287899 0
0.264394 -0.000843579 0
0.251315 -0.000355551 0
0.242257 -0.00147561 0
-0.0400112 0.00228894 0
0.202447 -0.00862831 0
0.197008 -0.00720393 0
0.202362 -0.00877367 0
0.240132 0.00637058 0
0.259707 -0.00184429 0
-0.0599403 -0.00849146 0
-0.259111 0.00456617 0
0.172272 -0.0138771 0
-0.165699 0.0129441 0
-0.255581 0.00157774 0
-0.182419 -0.0122091 0
-0.256404 0.00264395 0
0.19589 0.00496584 0
0.249641 0.00173895 0
-0.0776402 -0.0071321 0
0.203164 -0.00619796 0
0.20201 0.00558012 0
0.247601 0.00276695 0
0.16945 -0.00581199 0
-0.251299 0.00206922 0
-0.108257 -0.0034625 0
0.258985 5.69037e-05 0
0.173036 -0.000741616 0
-0.228089 -0.00158059 0
-0.246905 0.00190138 0
-0.256733 0.00194144 0
-0.0662025 0.00660161 0
0.199425 -0.00369489 0
0.225405 -0.00323461 0
0.22826 0.00261868 0
0.191124 0.00531421 0
-0.105323 0.000666047 0
0.266698 -0.00280097 0
-0.246098 0.00226994 0
-0.0582346 -0.00342062 0
0.257858 0.0030459 0
-0.0467744 -0.00188019 0
-0.198519 0.0102158 0
-0.246766 0.00187553 0
-0.149882 -0.00665968 0
-0.250216 -0.00117742 0
-0.251334 -0.00387385 0
0.247151 0.000232207 0
-0.254181 0.00434856 0
-0.250307 0.00371549 0
0.255214 0.00367479 0
0.248897 -0.000291891 0
0.192313 -0.0106292 0
0.267267 -0.00187438 0
0.264379 0.000560512 0
0.25644 -0.00204685 0
0.0287421 0.018904 0
0.260793 -0.00202686 0
0.211115 -0.00547388 0
-0.169322 -0.0112868 0
0.234938 0.00434241 0
-0.232454 0.00431646 0
0.24713 0.0013914 0
-0.207043 0.00770469 0
-0.220731 0.00364271 0
-0.24772 0.00273056 0
0.250289 0.00342215 0
-0.165313 0.012254 0
0.263661 0.00199983 0
0.228736 -0.00317023 0
-0.0518593 -0.0041871 0
0.267115 -0.00286524 0
-0.244299 -0.00478577 0
0.0347447 0.0303596 0
0.10599 -0.00391549 0
-0.220991 0.00705393 0
-0.155593 -0.0061341 0
0.244701 0.000653028 0
-0.108415 -0.0129534 0
0.230502 -0.0020323 0
-0.213569 0.00725321 0
-0.146245 -0.00969668 0
-0.256663 0.00412028 0
-0.253239 0.00515229 0
0.253634 0.000101786 0
-0.260177 -0.000607784 0
-0.0303988 0.0135474 0
-0.200068 0.00770213 0
-0.25973 0.00257632 0
-0.240993 -0.00376129 0
0.264893 -0.00158276 0
0.0937528 0.0158688 0
-0.246924 0.00220167 0
0.266201 0.000998724 0
0.255522 -0.000244188 0
-0.219309 0.00645774 0
-0.258826 -0.000112144 0
-0.254726 -0.00216539 0
0.248637 0.00298313 0
0.129423 0.0151952 0
-0.0391105 0.00975972 0
-0.263548 0.00307749 0
-0.226795 0.00400846 0
0.195285 -0.0107995 0
-0.199539 -0.00255185 0
-0.251798 0.00238356 0
0.154836 -0.00157252 0
0.261332 0.000255504 0
-0.231314 -0.00404366 0
-0.254767 0.00240374 0
-0.147072 -0.00858612 0
0.127696 0.00460286 0
0.228157 0.00292304 0
-0.240385 0.00473022 0
0.255725 -0.000243279 0
0.263132 0.00196193 0
0.150902 0.00821454 0
0.15746 0.00304729 0
-0.239453 0.00347723 0
0.246973 -0.00158216 0
-0.113122 -0.00566794 0
-0.231595 0.00542533 0
0.247398 0.000100912 0
-0.224471 0.00529797 0
0.218809 0.00596485 0
0.0948894 0.015068 0
0.137048 0.000462283 0
0.263054 0.000859355 0
-0.239366 0.00336789 0
0.0482053 -0.00493634 0
0.0242328 -0.00855001 0
-0.170656 0.00243967 0
-0.251558 0.000935717 0
-0.247642 0.00212052 0
-0.246028 -0.000626365 0
0.253469 -0.000368988 0
0.251439 -0.000231663 0
0.259025 -0.000324959 0
-0.253848 -0.00155857 0
0.166205 0.00222354 0
0.0138083 0.00808922 0
-0.265012 0.00345259 0
-0.257644 0.00171792 0
0.246162 2.9858e-05 0
-0.246256 0.00217423 0
0.244258 0.00439478 0
-0.249925 -0.000659941 0
-0.242201 0.000177897 0
-0.111861 -0.014202 0
-0.253863 0.0018239 0
0.240297 -0.00110953 0
-0.215569 0.00705633 0
-0.242869 -0.0017651 0
-0.0961885 0.0128405 0
-0.253162 0.00233161 0
-0.25708 0.00267351 0
0.21676 -0.00168108 0
-0.0900743 0.00456369 0
0.253102 -0.000317037 0
0.258641 -0.00156195 0
0.164811 0.0090586 0
0.262606 0.00237449 0
0.249503 0.00421124 0
0.261573 0.00294642 0
-0.173657 0.0149948 0
-0.237761 0.00156514 0
-0.264236 0.000857786 0
0.268299 0.000854271 0
-0.0355289 0.00493937 0
0.252229 -0.000839519 0
0.246249 0.00236522 0
0.2597 -0.000197273 0
0.0446367 0.00797744 0
-0.133053 0.0160619 0
0.218616 0.00367307 0
-0.0303218 0.000527043 0
-0.123984 0.00617757 0
-0.207714 0.00756775 0
0.253103 0.00449556 0
-0.183839 0.009455 0
0.234095 -0.003117 0
0.192968 -0.00272317 0
-0.263473 0.00423658 0
0.205707 -0.00901136 0
0.265609 -0.00300974 0
0.237481 -0.00163166 0
0.253923 0.00496809 0
-0.257039 0.00366419 0
-0.0561225 0.00977386 0
0.258915 0.00158811 0
0.257791 -0.000319647 0
0.118886 0.0159138 0
-0.245343 -1.6937e-05 0
-0.240548 0.00345553 0
0.265349 0.000590504 0
-0.245815 -0.00163542 0
0.256071 0.00185725 0
0.257818 -0.00126247 0
0.123396 -0.0144969 0
0.246857 0.00249842 0
-0.252424 0.00236895 0
-0.215799 -0.00010868 0
-0.144842 -0.00132157 0
0.0206208 -0.0045992 0
0.0309028 -0.0181937 0
-0.231527 0.00240593 0
0.114788 -0.0161274 0
-0.0266868 0.0257991 0
-0.260701 0.00411874 0
-0.186067 0.00888291 0
-0.254449 0.00308918 0
-0.105166 -0.00828425 0
0.257752 0.00463064 0
-0.180642 0.00994282 0
-0.257643 0.000241535 0
-39.7295 164.332 0
0.257134 -0.00303091 0
0.256382 -0.000417342 0
-0.209677 0.00921545 0
0.249379 0.0021639 0
0.236511 -0.000353833 0
-358.316 -640.79 0
0.0786834 0.00951643 0
-0.254974 0.00263046 0
-0.211775 -0.0012723 0
0.25449 0.0025194 0
2.55435 -5.26115 0
0.24084 0.0034362 0
-0.24959 -0.00352116 0
-0.159102 0.000453115 0
-0.253476 -0.00179396 0
-0.258358 0.00453883 0
0.252629 -0.000351237 0
-0.262218 -0.000613948 0
-0.227299 0.00607636 0
0.198146 0.0082174 0
-0.247134 0.000329247 0
-0.205826 0.00922514 0
-0.228458 0.00547224 0
0.255188 0.00295287 0
0.230126 -0.00411378 0
-0.151931 0.0123045 0
0.262463 -0.00101847 0
-0.255132 -0.00328258 0
-0.237057 -0.00199713 0
-0.257857 0.00108884 0
0.0225219 -0.0193002 0
-0.248289 -0.00308999 0
0.251905 0.00298842 0
-0.252895 0.00262021 0
-0.251657 0.00154848 0
-0.0617388 0.00983359 0
0.164811 0.00893833 0
-0.0819189 0.0232686 0
0.054371 0.0133122 0
-0.255276 0.00276501 0
-0.0458942 0.00258583 0
-0.255791 -0.000318697 0
-0.257061 0.00376445 0
0.246128 -0.00337895 0
0.216654 0.00624712 0
-0.240355 0.00435086 0
0.228863 0.00339024 0
0.227133 0.00116018 0
-0.245237 0.00223274 0
-0.135158 -0.00416547 0
0.179623 -0.0105695 0
-0.24564 0.000823903 0
0.217591 -0.00531735 0
0.0997945 -0.00272337 0
-0.252281 -0.000323316 0
0.236398 -7.99607e-05 0
0.248672 -0.0011598 0
0.252674 -0.00266617 0
0.257367 -0.000671802 0
0.261673 0.000332521 0
0.248171 0.00467304 0
-0.254059 0.00205252 0
0.18294 0.00641525 0
-0.209689 -0.00287565 0
0.120109 0.0171637 0
-0.239169 0.00202844 0
-0.0851891 -0.00321261 0
-0.198173 0.00773162 0
0.0727055 -0.00852886 0
-0.259328 0.00277372 0
0.248392 -0.000361117 0
-0.0695731 0.0189557 0
0.088984 0.0101388 0
-0.262803 0.00244169 0
0.250265 0.00150801 0
[...]
      <PointData Scalars="T">
        <DataArray type="Float32" Name="T" format="ascii" NumberOfComponents="1">
311.199
385.465
311.197
311.197
385.465
482.05
311.197
519.321
311.197
385.465
311.197
311.199
385.465
396.475
491.267
311.199
396.475
301.355
301.131
385.465
385.465
311.199
455.474
305.349
311.197
311.199
396.475
311.197
385.465
385.465
385.465
396.475
301.117
311.197
311.199
311.197
301.196
458.719
396.475
396.475
311.199
311.199
396.475
301.395
300.779
385.465
311.199
311.197
303.307
304.047
311.199
396.475
385.465
311.199
466.441
385.465
311.197
311.199
311.199
311.197
311.199
308.465
311.197
311.197
385.465
526.565
311.197
311.197
311.199
300.888
385.465
311.199
300.698
311.199
311.199
396.475
311.199
385.465
311.199
491.683
396.475
385.465
311.199
486.8
311.197
385.465
311.197
396.475
385.465
396.475
311.199
396.475
311.197
385.465
396.475
385.465
311.199
385.465
385.465
396.475
396.475
396.475
311.197
396.475
311.197
311.199
311.199
311.199
311.199
396.475
385.465
385.465
385.465
311.199
311.199
385.465
385.465
311.199
495.074
396.475
311.197
396.475
311.197
385.465
311.197
311.197
311.199
311.199
396.475
311.197
311.197
305.538
523.638
385.465
311.197
311.197
311.197
385.465
311.197
311.197
311.197
311.199
311.197
396.475
385.465
311.197
385.465
482.719
396.475
385.465
311.199
306.294
396.475
311.197
311.199
311.199
311.197
385.465
396.475
305.261
311.197
396.475
451.051
385.465
385.465
311.197
311.197
311.199
311.199
489.307
311.197
385.465
396.475
311.199
396.475
385.465
453.479
396.475
396.475
396.475
305.078
385.465
385.465
311.199
311.197
311.197
311.197
301.74
311.197
311.199
311.197
311.197
396.475
311.199
385.465
301.867
385.465
385.465
385.465
311.199
385.465
311.199
311.197
396.475
311.197
396.475
311.199
311.197
385.465
396.475
301.257
396.475
311.197
385.465
396.475
385.465
385.465
304.927
396.475
385.465
385.465
385.465
396.475
311.197
311.199
385.465
300.704
311.197
385.465
396.475
396.475
311.199
311.199
385.465
385.465
385.465
311.197
396.475
385.465
311.197
304.786
396.475
385.465
396.475
311.199
311.199
385.465
311.197
311.199
311.199
311.199
385.465
311.197
396.475
385.465
304.927
385.465
311.199
311.199
302.334
300.819
385.465
311.197
311.197
385.465
506.29
385.465
396.475
311.197
311.197
311.197
396.475
311.199
311.199
385.465
493.34
305.538
385.465
311.199
396.475
515.251
396.475
469.539
311.197
385.465
396.475
385.465
385.465
385.465
311.197
385.465
311.197
311.197
311.199
311.199
311.199
311.199
385.465
483.273
503.59
300.819
385.465
311.197
311.199
311.197
311.199
385.465
311.199
477.51
385.465
385.465
311.199
385.465
311.197
311.197
385.465
311.197
311.197
311.197
311.199
385.465
385.465
304.142
311.197
311.199
396.475
385.465
301.518
396.475
308.011
311.197
311.197
311.199
385.465
396.475
396.475
311.197
311.197
385.465
311.197
385.465
385.465
385.465
385.465
396.475
311.199
385.465
524.335
385.465
311.197
311.197
385.465
311.199
311.197
396.475
311.199
385.465
396.475
311.199
311.197
311.199
396.475
491.189
396.475
385.465
311.197
396.475
385.465
311.199
507.652
385.465
385.465
311.199
311.197
385.465
311.197
396.475
396.475
519.943
311.197
396.475
311.199
385.465
482.925
385.465
311.199
385.465
311.199
385.465
385.465
396.475
385.465
311.197
311.199
385.465
311.199
301.198
385.465
396.475
311.197
505.674
311.197
311.197
396.475
311.197
311.197
311.197
311.197
303.483
311.199
385.465
311.199
396.475
311.199
385.465
396.475
385.465
311.197
385.465
311.197
385.465
311.199
385.465
303.041
311.197
311.199
311.197
385.465
451.716
311.197
385.465
311.199
385.465
311.199
514.019
396.475
385.465
385.465
311.199
301.314
385.465
311.197
478.145
396.475
396.475
385.465
396.475
311.199
311.197
396.475
307.261
396.475
396.475
311.197
311.197
396.475
385.465
488.128
396.475
300.963
396.475
302.067
385.465
396.475
311.197
311.199
396.475
396.475
385.465
385.465
311.199
487.883
311.197
311.197
311.199
385.465
385.465
385.465
305.364
311.199
493.87
396.475
396.475
385.465
301.205
311.199
311.197
300.701
385.465
311.199
311.199
300.712
385.465
311.199
311.197
396.475
311.197
385.465
385.465
385.465
396.475
396.475
396.475
396.475
396.475
311.197
311.197
311.197
311.199
311.197
311.199
311.199
396.475
311.199
385.465
311.197
311.199
385.465
311.199
385.465
493.215
385.465
491.545
311.199
311.197
311.199
311.197
311.197
311.197
385.465
311.199
311.199
477.51
311.199
481.561
385.465
396.475
311.197
311.197
385.465
385.465
396.475
396.475
396.475
311.199
311.199
303.944
311.199
396.475
385.465
311.199
385.465
301.22
311.199
396.475
385.465
311.197
385.465
311.199
311.199
396.475
311.199
396.475
311.197
517.439
385.465
301.204
311.197
396.475
396.475
501.28
385.465
385.465
311.199
311.197
311.197
300.888
311.199
396.475
490.972
522.761
396.475
385.465
311.199
311.197
385.465
311.199
396.475
300.712
311.199
302.228
462.636
311.199
396.475
521.282
311.199
311.197
396.475
311.199
385.465
311.197
311.197
311.199
305.731
396.475
396.475
385.465
549.991
311.199
396.475
311.197
396.475
396.475
311.199
305.401
396.475
396.475
385.465
385.465
311.197
311.197
385.465
514.868
396.475
311.199
311.197
385.465
385.465
311.197
311.197
311.199
311.199
452.59
396.475
396.475
396.475
396.475
311.199
385.465
311.199
311.199
396.475
385.465
305.301
311.197
396.475
385.465
311.197
396.475
396.475
385.465
311.197
396.475
476.701
311.199
385.465
385.465
311.197
311.199
385.465
311.199
311.197
482.05
311.199
311.197
385.465
385.465
311.197
311.197
305.538
311.199
311.199
520.03
396.475
385.465
385.465
311.199
385.465
396.475
301.071
311.199
385.465
481.99
385.465
311.197
311.199
311.199
311.199
385.465
311.197
311.197
509.101
385.465
311.199
311.197
311.199
311.199
307.261
385.465
311.199
311.199
311.197
385.465
311.199
385.465
311.197
311.199
311.197
311.199
311.197
385.465
303.788
509.601
311.199
385.465
385.465
385.465
311.197
396.475
311.199
385.465
305.401
311.199
396.475
311.197
505.674
396.475
524.335
479.286
385.465
385.465
311.197
311.197
311.197
305.731
311.197
488.031
311.199
385.465
517.254
311.197
311.197
385.465
300.964
385.465
311.199
385.465
385.465
385.465
396.475
396.475
301.071
385.465
311.199
385.465
396.475
385.465
396.475
396.475
304.973
311.199
311.197
385.465
396.475
385.465
482.719
396.475
385.465
396.475
311.199
385.465
396.475
311.197
311.197
311.197
493.275
385.465
396.475
311.199
396.475
301.205
385.465
396.475
396.475
311.199
305.538
311.199
301.781
311.197
385.465
385.465
311.197
385.465
311.199
492.798
311.199
451.051
396.475
311.199
385.465
301.641
385.465
385.465
311.197
301.204
396.475
311.199
311.197
301.478
311.199
385.465
396.475
517.254
311.199
385.465
301.683
311.199
311.197
311.197
522.761
385.465
301.993
385.465
385.465
311.197
305.301
311.199
311.197
385.465
396.475
311.199
385.465
306.51
311.199
385.465
385.465
311.199
523.915
311.197
311.197
385.465
385.465
311.197
301.053
385.465
396.475
396.475
311.199
301.608
489.7
385.465
385.465
490.05
396.475
311.197
385.465
311.197
491.267
311.197
311.197
490.519
311.197
479.286
311.199
311.197
385.465
396.475
311.199
311.197
311.199
311.199
311.199
311.199
385.465
311.199
311.197
514.868
311.197
311.199
385.465
305.138
311.197
311.199
385.465
385.465
396.475
311.197
396.475
311.197
396.475
458.719
385.465
311.199
396.475
518.858
396.475
311.197
515.425
385.465
311.197
308.251
396.475
396.475
311.197
385.465
311.197
311.197
396.475
311.199
396.475
305.934
311.197
311.199
311.197
311.199
311.199
385.465
306.119
311.197
311.197
385.465
311.197
396.475
385.465
396.475
311.197
311.199
385.465
396.475
385.465
311.197
385.465
385.465
305.019
311.197
311.199
311.199
385.465
476.701
311.197
385.465
311.199
385.465
396.475
301.714
396.475
311.197
385.465
396.475
385.465
385.465
385.465
490.972
396.475
385.465
385.465
311.199
502.097
311.197
311.197
311.197
311.197
311.199
385.465
305.228
385.465
311.199
385.465
311.199
304.742
396.475
311.199
385.465
311.197
311.199
311.197
396.475
311.197
385.465
300.952
396.475
396.475
311.199
396.475
385.465
385.465
396.475
311.197
311.199
311.199
311.199
396.475
311.197
396.475
311.197
301.789
311.199
311.199
311.199
311.197
311.197
396.475
311.199
311.199
396.475
385.465
311.197
385.465
300.698
385.465
396.475
385.465
485.043
396.475
385.465
311.199
396.475
311.199
492.567
311.197
385.465
311.199
385.465
385.465
311.199
311.199
385.465
311.197
311.199
304.292
301.257
396.475
385.465
512.929
527.154
311.197
385.465
302.552
385.465
385.465
311.197
311.197
385.465
311.199
311.197
304.047
311.197
385.465
305.078
311.199
385.465
385.465
385.465
396.475
385.465
311.197
385.465
311.197
396.475
302.886
311.197
311.199
385.465
396.475
396.475
385.465
311.197
311.199
396.475
311.197
301.131
396.475
396.475
311.197
385.465
301.355
311.197
311.199
396.475
385.465
385.465
385.465
311.199
527.154
311.199
482.925
385.465
311.197
311.199
311.199
311.197
311.199
515.251
508.424
396.475
385.465
311.197
311.199
311.199
311.199
311.199
311.199
396.475
385.465
385.465
385.465
396.475
385.465
385.465
302.684
311.197
311.197
311.197
311.197
385.465
311.197
385.465
301.117
396.475
385.465
311.199
469.539
514.624
311.197
524.575
311.197
311.197
311.197
311.197
311.199
311.199
311.197
311.199
396.475
300.783
482.96
311.199
311.199
305.019
396.475
311.197
396.475
311.199
311.199
311.199
311.199
385.465
311.197
385.465
311.199
305.078
311.197
519.151
518.056
523.638
311.197
311.197
396.475
311.199
385.465
311.199
311.197
396.475
385.465
506.29
311.197
311.199
385.465
311.197
385.465
311.199
385.465
385.465
478.156
385.465
311.197
311.197
396.475
385.465
385.465
385.465
311.197
396.475
311.199
385.465
311.199
311.199
385.465
385.465
311.199
385.465
311.197
311.197
311.197
385.465
301.303
311.197
396.475
385.465
311.197
385.465
311.197
385.465
385.465
311.197
396.475
396.475
305.368
305.198
311.199
311.197
311.199
396.475
307.227
311.199
385.465
385.465
311.197
385.465
311.199
300.698
489.757
385.465
311.199
519.151
488.076
301.055
311.197
521.896
489.157
311.197
385.465
502.097
396.475
396.475
385.465
311.197
311.197
385.465
385.465
311.197
396.475
311.197
311.199
311.199
385.465
385.465
311.197
488.076
311.199
385.465
311.199
311.197
482.406
311.197
311.197
396.475
385.465
396.475
396.475
385.465
385.465
385.465
385.465
311.199
304.973
311.197
385.465
311.197
385.465
385.465
305.261
385.465
385.465
311.199
385.465
396.475
311.197
396.475
396.475
311.199
385.465
311.199
306.119
311.197
311.197
385.465
311.199
301.635
385.465
385.465
311.199
385.465
385.465
302.153
311.197
311.197
396.475
311.197
385.465
301.763
311.197
509.673
385.465
385.465
311.197
304.977
385.465
385.465
385.465
396.475
305.736
396.475
311.197
396.475
396.475
304.17
311.199
311.197
396.475
311.199
311.197
311.199
490.768
311.197
509.101
517.254
385.465
385.465
488.879
396.475
396.475
311.199
311.199
396.475
385.465
385.465
311.197
385.465
385.465
385.465
396.475
396.475
311.197
311.197
311.199
385.465
311.199
311.199
311.197
396.475
311.197
302.713
311.199
300.988
311.199
385.465
503.735
512.278
385.465
487.61
311.197
396.475
396.475
311.199
385.465
396.475
385.465
485.393
455.474
385.465
524.904
311.197
396.475
396.475
385.465
396.475
385.465
311.197
396.475
385.465
311.197
311.197
311.197
396.475
396.475
385.465
311.199
385.465
396.475
302.071
385.465
385.465
385.465
311.199
385.465
311.199
311.199
311.197
396.475
311.197
301.589
396.475
516.141
311.197
311.199
396.475
385.465
385.465
311.197
385.465
396.475
385.465
311.199
311.199
311.197
311.199
396.475
385.465
385.465
311.197
311.199
385.465
311.199
311.199
512.929
396.475
396.475
311.199
311.199
311.199
451.051
311.199
512.278
311.199
385.465
385.465
482.406
311.199
305.538
311.197
311.197
396.475
311.197
311.197
490.768
385.465
311.199
311.199
303.573
385.465
311.197
385.465
311.197
311.199
311.197
301.131
520.03
385.465
517.258
311.199
311.197
311.197
311.197
385.465
311.199
385.465
307.261
305.274
311.199
396.475
302.847
385.465
311.199
311.199
311.197
396.475
311.197
311.197
311.197
311.197
311.199
503.909
311.199
311.197
385.465
396.475
517.258
480.752
385.465
385.465
481.561
385.465
311.197
311.197
396.475
311.199
385.465
492.567
455.474
311.197
396.475
396.475
311.199
311.197
311.199
311.199
311.199
482.925
311.199
311.199
311.197
311.199
385.465
301.463
499.843
396.475
396.475
311.197
396.475
385.465
385.465
385.465
385.465
385.465
523.638
385.465
308.465
311.199
311.197
385.465
311.197
385.465
311.197
311.199
385.465
300.932
303.424
311.199
311.199
311.197
489.307
311.197
300.899
385.465
311.199
486.011
311.199
385.465
311.197
304.927
385.465
385.465
396.475
385.465
396.475
385.465
311.197
311.197
311.197
396.475
311.199
385.465
311.197
396.475
311.199
385.465
385.465
396.475
385.465
305.12
311.197
396.475
311.197
311.199
396.475
385.465
304.786
311.199
385.465
311.199
311.199
311.197
305.301
311.197
396.475
385.465
396.475
396.475
311.199
311.197
311.199
301.205
311.197
385.465
519.565
518.773
311.197
300.882
311.197
311.197
385.465
311.197
311.199
311.199
311.199
305.364
311.199
385.465
385.465
385.465
311.199
385.465
385.465
311.197
300.794
305.198
300.704
385.465
311.199
385.465
311.199
311.199
385.465
311.197
396.475
396.475
396.475
311.197
396.475
396.475
489.157
396.475
396.475
385.465
396.475
396.475
490.768
311.197
385.465
385.465
311.199
311.199
311.197
311.197
311.199
385.465
385.465
311.199
396.475
396.475
311.199
469.539
396.475
304.142
311.199
311.197
385.465
385.465
311.197
385.465
385.465
311.197
396.475
301.195
303.468
311.197
311.197
385.465
385.465
385.465
311.197
385.465
385.465
385.465
385.465
396.475
385.465
311.199
396.475
385.465
385.465
311.199
385.465
311.197
385.465
488.128
311.199
385.465
396.475
311.197
311.197
396.475
514.116
515.425
305.138
488.076
385.465
486.8
396.475
385.465
396.475
396.475
311.199
311.197
396.475
385.465
311.197
311.199
311.197
396.475
311.197
311.197
311.199
311.199
385.465
396.475
385.465
385.465
304.742
476.701
311.199
455.474
396.475
396.475
311.197
300.653
396.475
385.465
311.197
490.519
311.199
311.197
311.199
311.197
311.197
311.199
466.441
396.475
396.475
385.465
311.197
305.228
396.475
303.868
490.972
385.465
385.465
396.475
385.465
311.199
311.197
385.465
396.475
306.72
311.199
385.465
311.197
385.465
311.197
311.197
311.197
385.465
311.199
311.197
311.197
311.199
396.475
300.661
396.475
396.475
311.197
311.197
396.475
487.61
311.199
311.197
311.197
396.475
396.475
385.465
311.199
311.199
396.475
311.199
311.197
508.424
311.197
311.199
385.465
396.475
524.904
385.465
385.465
496.936
385.465
385.465
311.199
396.475
300.787
396.475
396.475
311.199
483.273
385.465
385.465
396.475
311.197
385.465
396.475
307.638
385.465
491.545
385.465
311.199
311.197
311.199
311.197
396.475
396.475
385.465
396.475
469.539
385.465
396.475
385.465
453.479
311.197
311.199
311.199
301.993
301.117
396.475
512.929
311.199
311.199
396.475
396.475
385.465
311.197
482.406
385.465
385.465
311.197
385.465
311.197
311.199
301.015
311.197
385.465
311.199
385.465
385.465
396.475
311.199
385.465
311.199
301.314
304.62
304.977
385.465
396.475
302.552
305.274
301.205
311.199
311.199
311.197
396.475
311.197
311.197
385.465
517.633
385.465
311.197
311.197
311.197
455.474
482.925
385.465
311.199
385.465
311.199
476.732
302.859
311.197
311.197
311.197
385.465
311.199
396.475
302.553
305.017
311.199
385.465
396.475
396.475
385.465
396.475
396.475
303.638
385.465
517.254
311.197
311.197
306.51
385.465
385.465
396.475
396.475
311.199
385.465
396.475
396.475
311.199
385.465
516.668
311.197
385.465
311.199
396.475
311.197
451.051
396.475
311.199
385.465
311.197
396.475
385.465
311.197
311.199
396.475
385.465
385.465
311.197
385.465
396.475
311.197
519.321
311.199
311.199
517.439
311.199
311.197
311.197
311.197
301.683
396.475
311.197
311.199
507.48
311.199
385.465
396.475
396.475
385.465
396.475
311.197
396.475
311.199
311.199
311.199
311.197
311.199
311.197
311.197
311.199
396.475
308.011
311.199
396.475
311.197
311.197
311.199
300.819
396.475
311.197
311.197
396.475
311.199
396.475
396.475
311.197
385.465
385.465
311.197
385.465
307.261
301.683
311.199
311.197
311.197
311.197
311.197
305.401
300.952
385.465
396.475
521.282
311.199
302.552
385.465
311.197
311.197
517.254
311.197
311.199
311.197
311.197
311.197
385.465
311.199
311.197
385.465
311.197
396.475
311.199
311.197
311.199
385.465
396.475
311.199
385.465
385.465
311.197
311.197
311.197
385.465
311.199
300.806
510.721
385.465
311.197
311.197
311.199
396.475
396.475
396.475
311.197
311.199
311.197
396.475
385.465
311.197
302.402
311.199
311.199
311.197
385.465
311.199
396.475
311.199
385.465
385.465
307.227
311.199
385.465
478.145
311.199
396.475
506.288
492.719
508.378
385.465
385.465
396.475
311.197
311.197
396.475
311.199
522.761
311.199
311.197
396.475
311.197
311.197
385.465
311.197
498.819
477.51
385.465
385.465
311.199
311.199
311.197
396.475
311.197
396.475
311.197
311.197
451.716
396.475
385.465
302.153
301.589
311.199
304.047
396.475
311.197
385.465
311.197
385.465
311.197
385.465
385.465
311.199
311.197
396.475
304.973
385.465
311.199
385.465
396.475
396.475
396.475
311.197
385.465
396.475
478.156
396.475
396.475
311.197
385.465
311.197
311.197
311.199
311.197
311.199
311.197
385.465
396.475
479.966
311.199
311.199
385.465
311.197
305.349
311.197
311.197
385.465
385.465
311.199
311.199
311.197
305.401
505.674
300.779
396.475
455.474
385.465
311.197
385.465
301.055
396.475
311.197
385.465
396.475
311.199
385.465
311.199
311.197
311.199
519.733
522.452
303.22
311.197
311.197
311.197
311.199
396.475
311.199
303.868
385.465
311.197
311.199
311.197
396.475
311.199
311.199
396.475
482.719
478.156
303.109
311.197
476.701
385.465
517.439
396.475
311.197
311.197
385.465
396.475
311.197
396.475
385.465
385.465
311.197
311.199
396.475
523.638
396.475
311.197
396.475
396.475
311.199
311.199
311.199
311.199
385.465
396.475
396.475
396.475
311.199
311.197
311.199
311.197
385.465
385.465
385.465
385.465
396.475
385.465
476.701
301.611
306.72
311.197
311.197
396.475
396.475
385.465
385.465
385.465
311.197
486.8
311.199
311.199
311.197
396.475
396.475
311.197
311.199
311.197
396.475
311.199
385.465
385.465
311.197
311.197
311.197
311.197
311.199
311.199
311.199
311.199
311.197
311.197
489.157
311.197
385.465
311.199
385.465
385.465
482.406
311.197
311.197
521.257
311.199
385.465
396.475
385.465
396.475
311.197
385.465
490.519
311.197
300.764
396.475
385.465
385.465
492.719
311.197
311.197
311.197
396.475
300.932
302.228
311.197
520.707
518.773
311.197
305.595
311.199
311.199
311.197
311.199
396.475
311.197
300.704
311.199
385.465
385.465
385.465
385.465
385.465
311.197
519.321
513.806
385.465
385.465
385.465
304.521
303.418
311.197
385.465
311.197
311.197
311.197
311.197
311.199
385.465
385.465
396.475
311.197
476.701
311.197
396.475
311.197
488.031
478.156
385.465
311.199
396.475
396.475
311.199
396.475
301.805
385.465
303.418
311.199
311.199
517.633
311.199
385.465
396.475
311.197
385.465
311.197
311.197
311.199
311.199
311.199
385.465
311.199
503.735
396.475
300.964
396.475
396.475
501.28
311.197
385.465
486.011
385.465
311.197
396.475
385.465
311.199
311.197
311.197
396.475
385.465
300.673
385.465
385.465
311.199
396.475
385.465
396.475
385.465
396.475
385.465
385.465
301.714
311.199
385.465
396.475
311.197
311.197
396.475
385.465
311.199
302.468
311.199
385.465
385.465
311.197
396.475
385.465
396.475
301.071
311.197
311.197
304.62
311.199
311.199
311.199
311.197
385.465
396.475
492.719
489.307
396.475
385.465
311.199
385.465
311.199
302.552
385.465
311.197
311.199
396.475
396.475
301.589
385.465
385.465
311.199
385.465
493.275
385.465
385.465
396.475
385.465
396.475
385.465
385.465
311.199
396.475
396.475
385.465
396.475
311.199
302.349
311.199
311.199
385.465
396.475
311.197
385.465
385.465
525.401
311.197
311.197
385.465
396.475
311.199
311.197
396.475
385.465
396.475
396.475
385.465
311.197
385.465
396.475
311.199
308.355
385.465
396.475
311.197
311.197
385.465
396.475
385.465
385.465
524.575
311.197
311.199
311.199
311.199
311.199
385.465
311.197
311.197
311.199
385.465
396.475
385.465
396.475
311.199
311.197
311.197