<?xml version="1.0"?>
<VTKFile type="ImageData" version="0.1" byte_order="LittleEndian">
  <ImageData Origin="0 0 0" Spacing="1e-05 1e-05 1e-05" WholeExtent="0 191 0 191 0 0">
    <Piece Extent="0 191 0 191 0 0">
      <CellData Scalars="T">
        <DataArray type="Float32" Name="T" format="ascii" NumberOfComponents="1">
683.551
15000
15000
15000
15000
15000
15000
14999.9
14999.9
14999.9
14999.9
14999.8
14999.8
14999.7
14999.7
14999.6
14999.6
14999.5
14999.5
14999.5
14999.4
14999.4
14999.4
14999.4
14999.4
14999.4
14999.4
14999.4
14999.4
14999.4
14999.5
14999.5
14999.5
14999.6
14999.6
14999.7
14999.7
14999.7
14999.8
14999.8
14999.8
14999.8
14999.8
14999.9
14999.9
14999.9
14999.9
14999.9
14999.8
14999.8
14999.8
14999.8
14999.7
14999.6
14999.6
14999.5
14999.3
14999.2
14999
14998.8
14998.5
14998.2
14997.8
14997.3
14996.8
14996.1
14995.3
14994.4
14993.3
14992
14990.5
14988.7
14986.6
14984.2
14981.4
14978.1
14974.3
14969.9
14964.9
14959.1
14952.5
14944.9
14936.3
14926.5
14915.5
14902.9
14888.8
14872.9
14855
14835
14812.7
14787.9
14760.2
14729.7
14695.8
14658.5
14617.5
14572.5
14523.3
14469.5
14410.9
14347.3
14278.3
14203.8
14123.4
14036.9
13944.1
13844.7
13738.7
13625.6
13505.6
13378.3
13243.6
13101.6
12952.2
12795.4
12631.1
12459.5
12280.8
12094.9
11902.2
11702.8
11497.1
11285.4
11067.9
10845.2
10617.7
10385.7
10149.9
9910.75
9668.8
9424.64
9178.86
8932.1
8684.97
8438.11
8192.15
7947.72
7705.47
7466
7229.92
6997.82
6770.26
6547.78
6330.88
6120.06
5915.74
5718.34
5528.23
5345.74
5171.15
5004.71
4846.63
4697.07
4556.15
4423.95
4300.51
4185.83
4079.88
3982.59
3893.85
3813.52
3741.45
3677.44
3621.27
3572.7
3531.49
3497.34
3469.97
3449.08
3434.35
3425.46
3422.07
3423.85
3430.45
3441.52
3456.68
3475.54
3497.67
3522.53
3549.42
3577.29
3604.48
3628.13
3643.07
3639.82
3600.53
3491.22
3245.82
2731.76
1667.74
335.446
2435
15000
15000
15000
15000
15000
15000
14999.9
14999.9
14999.9
14999.8
14999.8
14999.7
14999.7
14999.6
14999.6
14999.5
14999.5
14999.4
14999.4
14999.3
14999.3
14999.3
14999.3
14999.3
14999.3
14999.3
14999.3
14999.3
14999.4
14999.4
14999.4
14999.5
14999.5
14999.6
14999.6
14999.7
14999.7
14999.7
14999.8
14999.8
14999.8
14999.8
14999.8
14999.9
14999.9
14999.9
14999.9
14999.8
14999.8
14999.8
14999.8
14999.7
14999.6
14999.6
14999.5
14999.3
14999.2
14999
14998.8
14998.5
14998.2
14997.8
14997.3
14996.8
14996.1
14995.3
14994.4
14993.3
14992
14990.5
14988.7
14986.6
14984.2
14981.4
14978.1
14974.3
14969.9
14964.9
14959.1
14952.5
14945
14936.3
14926.6
14915.5
14902.9
14888.8
14872.9
14855
14835
14812.7
14787.9
14760.3
14729.7
14695.9
14658.6
14617.6
14572.6
14523.3
14469.6
14411
14347.4
14278.4
14203.9
14123.5
14037
13944.2
13844.9
13738.8
13625.8
13505.7
13378.4
13243.8
13101.8
12952.4
12795.6
12631.3
12459.7
12281
12095.1
11902.4
11703
11497.3
11285.6
11068.1
10845.4
10617.8
10385.9
10150.1
9910.88
9668.91
9424.73
9178.93
8932.14
8684.98
8438.09
8192.09
7947.63
7705.34
7465.82
7229.7
6997.55
6769.94
6547.4
6330.45
6119.56
5915.18
5717.72
5527.54
5344.98
5170.32
5003.81
4845.65
4696.02
4555.02
4422.74
4299.22
4184.47
4078.44
3981.06
3892.24
3811.84
3739.68
3675.59
3619.34
3570.7
3529.41
3495.19
3467.75
3446.78
3431.99
3423.03
3419.57
3421.29
3427.83
3438.83
3453.94
3472.76
3494.84
3519.65
3546.5
3574.35
3601.54
3625.23
3640.32
3637.51
3599.49
3493.99
3261.01
2791.23
1900.19
497.195
2435
15000
15000
15000
15000
15000
14999.9
14999.9
14999.9
14999.8
14999.8
14999.7
14999.7
14999.6
14999.5
14999.5
14999.4
14999.3
14999.3
14999.2
14999.2
14999.1
14999.1
14999.1
14999.1
14999.1
14999.1
14999.1
14999.2
14999.2
14999.3
14999.3
14999.4
14999.4
14999.5
14999.5
14999.6
14999.6
14999.7
14999.7
14999.7
14999.8
14999.8
14999.8
14999.8
14999.8
14999.8
14999.8
14999.8
14999.8
14999.8
14999.8
14999.7
14999.6
14999.6
14999.5
14999.3
14999.2
14999
14998.8
14998.5
14998.2
14997.8
14997.3
14996.8
14996.1
14995.3
14994.4
14993.3
14992
14990.5
14988.7
14986.6
14984.2
14981.4
14978.1
14974.3
14969.9
14964.9
14959.1
14952.5
14945
14936.4
14926.6
14915.5
14903
14888.8
14872.9
14855.1
14835.1
14812.8
14788
14760.4
14729.8
14696
14658.7
14617.7
14572.7
14523.5
14469.7
14411.1
14347.5
14278.6
14204.1
14123.7
14037.2
13944.5
13845.1
13739.1
13626.1
13506
13378.7
13244.1
13102.2
12952.8
12795.9
12631.7
12460.1
12281.3
12095.5
11902.8
11703.4
11497.7
11286
11068.5
10845.8
10618.2
10386.2
10150.4
9911.15
9669.14
9424.91
9179.07
8932.23
8685.01
8438.05
8191.98
7947.45
7705.07
7465.48
7229.26
6997.01
6769.29
6546.65
6329.58
6118.57
5914.07
5716.48
5526.17
5343.47
5168.67
5002.01
4843.71
4693.92
4552.77
4420.33
4296.66
4181.74
4075.55
3978.02
3889.04
3808.47
3736.16
3671.91
3615.51
3566.71
3525.26
3490.89
3463.31
3442.2
3427.26
3418.17
3414.59
3416.18
3422.59
3433.49
3448.48
3467.2
3489.18
3513.91
3540.69
3568.48
3595.65
3619.4
3634.71
3632.5
3596
3494.23
3270.22
2820.47
1960.87
495.283
2435
15000
15000
15000
15000
15000
14999.9
14999.9
14999.8
14999.8
14999.7
14999.7
14999.6
14999.5
14999.4
14999.3
14999.2
14999.1
14999
14999
14998.9
14998.9
14998.8
14998.8
14998.8
14998.8
14998.9
14998.9
14998.9
14999
14999
14999.1
14999.2
14999.2
14999.3
14999.4
14999.5
14999.5
14999.6
14999.6
14999.7
14999.7
14999.8
14999.8
14999.8
14999.8
14999.8
14999.8
14999.8
14999.8
14999.8
14999.7
14999.7
14999.6
14999.6
14999.5
14999.3
14999.2
14999
14998.8
14998.5
14998.2
14997.8
14997.3
14996.8
14996.1
14995.3
14994.4
14993.3
14992
14990.5
14988.7
14986.6
14984.2
14981.4
14978.1
14974.3
14970
14964.9
14959.2
14952.6
14945
14936.4
14926.6
14915.5
14903
14888.9
14873
14855.1
14835.2
14812.9
14788.1
14760.5
14729.9
14696.1
14658.8
14617.9
14572.9
14523.7
14469.9
14411.4
14347.8
14278.9
14204.4
14124
14037.6
13944.8
13845.5
13739.5
13626.5
13506.5
13379.2
13244.6
13102.7
12953.3
12796.5
12632.3
12460.7
12281.9
12096.1
11903.4
11704
11498.3
11286.5
11069.1
10846.3
10618.7
10386.7
10150.8
9911.54
9669.48
9425.19
9179.28
8932.36
8685.05
8438
8191.83
7947.18
7704.69
7464.96
7228.6
6996.21
6768.34
6545.53
6328.29
6117.11
5912.42
5714.63
5524.12
5341.22
5166.21
4999.33
4840.81
4690.8
4549.41
4416.75
4292.84
4177.68
4071.26
3973.48
3884.26
3803.46
3730.91
3666.42
3609.78
3560.75
3519.08
3484.48
3456.68
3435.36
3420.21
3410.92
3407.14
3408.54
3414.78
3425.5
3440.34
3458.89
3480.74
3505.34
3532
3559.7
3586.83
3610.62
3626.14
3624.48
3589.23
3490.05
3270.74
2826.52
1958.5
492.6
2435
15000
15000
15000
15000
14999.9
14999.9
14999.9
14999.8
14999.7
14999.6
14999.5
14999.4
14999.3
14999.2
14999.1
14999
14998.8
14998.7
14998.6
14998.6
14998.5
14998.5
14998.4
14998.4
14998.5
14998.5
14998.5
14998.6
14998.7
14998.7
14998.8
14998.9
14999
14999.1
14999.2
14999.3
14999.4
14999.4
14999.5
14999.6
14999.6
14999.7
14999.7
14999.8
14999.8
14999.8
14999.8
14999.8
14999.8
14999.8
14999.7
14999.7
14999.6
14999.5
14999.5
14999.3
14999.2
14999
14998.8
14998.5
14998.2
14997.8
14997.3
14996.8
14996.1
14995.3
14994.4
14993.3
14992
14990.5
14988.7
14986.7
14984.2
14981.4
14978.1
14974.4
14970
14965
14959.2
14952.6
14945
14936.4
14926.7
14915.6
14903.1
14889
14873.1
14855.2
14835.3
14813
14788.2
14760.6
14730.1
14696.3
14659
14618.1
14573.1
14523.9
14470.2
14411.7
14348.1
14279.2
14204.8
14124.4
14038
13945.3
13846
13740
13627.1
13507.1
13379.8
13245.3
13103.4
12954
12797.2
12633
12461.5
12282.7
12096.9
11904.2
11704.8
11499.1
11287.3
11069.8
10847
10619.4
10387.3
10151.4
9912.07
9669.93
9425.56
9179.56
8932.53
8685.12
8437.94
8191.63
7946.84
7704.18
7464.28
7227.75
6995.16
6767.08
6544.06
6326.6
6115.17
5910.24
5712.2
5521.43
5338.25
5162.96
4995.8
4836.98
4686.67
4544.98
4412.01
4287.78
4172.31
4065.57
3967.48
3877.94
3796.82
3723.95
3659.15
3602.2
3552.87
3510.89
3476
3447.91
3426.3
3410.88
3401.32
3397.28
3398.43
3404.43
3414.92
3429.54
3447.89
3469.55
3493.97
3520.48
3548.06
3575.11
3598.9
3614.58
3613.35
3579.05
3481.73
3265.77
2827.58
1973.86
495.271
2435
15000
15000
15000
15000
14999.9
14999.9
14999.8
14999.7
14999.6
14999.5
14999.4
14999.2
14999.1
14998.9
14998.8
14998.6
14998.5
14998.3
14998.2
14998.1
14998
14998
14997.9
14997.9
14998
14998
14998.1
14998.1
14998.2
14998.3
14998.5
14998.6
14998.7
14998.8
14998.9
14999.1
14999.2
14999.3
14999.4
14999.5
14999.5
14999.6
14999.6
14999.7
14999.7
14999.8
14999.8
14999.8
14999.8
14999.8
14999.7
14999.7
14999.6
14999.5
14999.4
14999.3
14999.2
14999
14998.8
14998.5
14998.2
14997.8
14997.3
14996.8
14996.1
14995.3
14994.4
14993.3
14992
14990.5
14988.7
14986.7
14984.2
14981.4
14978.2
14974.4
14970
14965
14959.2
14952.6
14945.1
14936.5
14926.7
14915.7
14903.2
14889.1
14873.2
14855.4
14835.4
14813.2
14788.4
14760.8
14730.3
14696.5
14659.3
14618.4
14573.4
14524.3
14470.6
14412.1
14348.6
14279.7
14205.3
14125
14038.6
13945.9
13846.7
13740.7
13627.8
13507.8
13380.6
13246.1
13104.2
12954.9
12798.1
12633.9
12462.4
12283.7
12097.9
11905.2
11705.8
11500.1
11288.3
11070.8
10847.9
10620.3
10388.1
10152.1
9912.73
9670.51
9426.04
9179.92
8932.77
8685.21
8437.87
8191.4
7946.42
7703.57
7463.46
7226.7
6993.87
6765.54
6542.25
6324.51
6112.79
5907.55
5709.2
5518.1
5334.58
5158.94
4991.43
4832.25
4681.56
4539.5
4406.14
4281.53
4165.68
4058.54
3960.05
3870.12
3788.61
3715.35
3650.16
3592.83
3543.11
3500.76
3465.5
3437.04
3415.09
3399.32
3389.42
3385.06
3385.9
3391.6
3401.81
3416.16
3434.26
3455.67
3479.88
3506.19
3533.61
3560.54
3584.29
3600.06
3599.17
3565.62
3469.82
3256.85
2825.2
1990.68
503.352
2435
15000
15000
15000
14999.9
14999.9
14999.8
14999.8
14999.6
14999.5
14999.4
14999.2
14999
14998.8
14998.6
14998.4
14998.2
14998
14997.8
14997.7
14997.5
14997.4
14997.4
14997.3
14997.3
14997.3
14997.4
14997.5
14997.6
14997.7
14997.8
14998
14998.2
14998.3
14998.5
14998.6
14998.8
14998.9
14999.1
14999.2
14999.3
14999.4
14999.5
14999.6
14999.6
14999.7
14999.7
14999.7
14999.7
14999.7
14999.7
14999.7
14999.7
14999.6
14999.5
14999.4
14999.3
14999.2
14999
14998.8
14998.5
14998.2
14997.8
14997.3
14996.8
14996.1
14995.4
14994.4
14993.3
14992
14990.5
14988.8
14986.7
14984.3
14981.4
14978.2
14974.4
14970
14965
14959.3
14952.7
14945.2
14936.6
14926.8
14915.8
14903.3
14889.2
14873.3
14855.5
14835.6
14813.3
14788.6
14761
14730.5
14696.8
14659.6
14618.7
14573.8
14524.6
14471
14412.5
14349.1
14280.2
14205.8
14125.6
14039.3
13946.6
13847.4
13741.5
13628.7
13508.7
13381.6
13247.1
13105.2
12956
12799.2
12635.1
12463.6
12284.9
12099.1
11906.4
11707
11501.2
11289.4
11071.9
10849
10621.3
10389.1
10153
9913.54
9671.21
9426.61
9180.36
8933.06
8685.33
8437.82
8191.14
7945.95
7702.86
7462.5
7225.47
6992.36
6763.73
6540.12
6322.05
6109.99
5904.39
5705.65
5514.17
5330.25
5154.2
4986.26
4826.65
4675.52
4533.01
4399.2
4274.13
4157.81
4050.21
3951.26
3860.86
3778.87
3705.15
3639.5
3581.7
3531.53
3488.74
3453.04
3424.15
3401.77
3385.6
3375.3
3370.56
3371.03
3376.37
3386.24
3400.26
3418.06
3439.18
3463.13
3489.2
3516.42
3543.2
3566.86
3582.68
3582.03
3549.08
3454.45
3243.52
2814.76
1980.97
508.04
2435
15000
15000
15000
14999.9
14999.9
14999.8
14999.7
14999.6
14999.4
14999.2
14999
14998.8
14998.5
14998.2
14998
14997.7
14997.5
14997.2
14997
14996.9
14996.7
14996.6
14996.6
14996.6
14996.6
14996.7
14996.8
14996.9
14997.1
14997.2
14997.4
14997.6
14997.8
14998
14998.2
14998.4
14998.6
14998.8
14999
14999.1
14999.2
14999.3
14999.4
14999.5
14999.6
14999.6
14999.7
14999.7
14999.7
14999.7
14999.7
14999.7
14999.6
14999.5
14999.4
14999.3
14999.2
14999
14998.8
14998.5
14998.2
14997.8
14997.3
14996.8
14996.1
14995.4
14994.4
14993.3
14992.1
14990.5
14988.8
14986.7
14984.3
14981.5
14978.2
14974.4
14970.1
14965.1
14959.3
14952.7
14945.2
14936.6
14926.9
14915.9
14903.4
14889.3
14873.5
14855.7
14835.8
14813.5
14788.8
14761.3
14730.8
14697.1
14659.9
14619.1
14574.2
14525.1
14471.5
14413.1
14349.6
14280.9
14206.5
14126.3
14040.1
13947.5
13848.3
13742.4
13629.6
13509.8
13382.7
13248.3
13106.4
12957.2
12800.5
12636.4
12464.9
12286.2
12100.4
11907.7
11708.4
11502.6
11290.8
11073.2
10850.3
10622.5
10390.3
10154.1
9914.48
9672.03
9427.3
9180.89
8933.42
8685.5
8437.77
8190.87
7945.42
7702.07
7461.42
7224.08
6990.64
6761.67
6537.69
6319.24
6106.78
5900.76
5701.6
5509.66
5325.29
5148.76
4980.34
4820.23
4668.59
4525.57
4391.23
4265.63
4148.78
4040.64
3941.15
3850.2
3767.68
3693.42
3627.23
3568.91
3518.21
3474.9
3438.69
3409.31
3386.44
3369.79
3359.04
3353.85
3353.89
3358.82
3368.29
3381.94
3399.38
3420.17
3443.81
3469.6
3496.57
3523.16
3546.7
3562.51
3562.04
3529.57
3435.85
3226.18
2797.34
1950.79
503.736
2435
15000
15000
15000
14999.9
14999.8
14999.7
14999.6
14999.5
14999.3
14999
14998.8
14998.5
14998.1
14997.8
14997.5
14997.2
14996.8
14996.5
14996.3
14996.1
14995.9
14995.8
14995.7
14995.7
14995.8
14995.8
14996
14996.1
14996.3
14996.5
14996.8
14997
14997.3
14997.5
14997.8
14998
14998.3
14998.5
14998.7
14998.9
14999
14999.2
14999.3
14999.4
14999.5
14999.6
14999.6
14999.6
14999.7
14999.7
14999.7
14999.6
14999.6
14999.5
14999.4
14999.3
14999.2
14999
14998.8
14998.5
14998.2
14997.8
14997.4
14996.8
14996.1
14995.4
14994.4
14993.4
14992.1
14990.6
14988.8
14986.7
14984.3
14981.5
14978.2
14974.5
14970.1
14965.1
14959.4
14952.8
14945.3
14936.7
14927
14916
14903.5
14889.4
14873.6
14855.9
14836
14813.8
14789
14761.6
14731.1
14697.5
14660.3
14619.5
14574.7
14525.6
14472
14413.7
14350.3
14281.6
14207.3
14127.2
14040.9
13948.4
13849.3
13743.5
13630.8
13511
13383.9
13249.6
13107.8
12958.6
12801.9
12637.9
12466.4
12287.8
12102
11909.3
11709.9
11504.2
11292.3
11074.7
10851.8
10623.9
10391.6
10155.3
9915.57
9672.98
9428.1
9181.52
8933.85
8685.71
8437.75
8190.59
7944.86
7701.21
7460.23
7222.55
6988.74
6759.38
6535
6316.11
6103.2
5896.72
5697.07
5504.63
5319.73
5142.67
4973.7
4813.03
4660.83
4517.22
4382.29
4256.1
4138.64
4029.89
3929.79
3838.23
3755.1
3680.23
3613.44
3554.52
3503.23
3459.33
3422.55
3392.6
3369.19
3352
3340.72
3335.03
3334.58
3339.04
3348.07
3361.29
3378.32
3398.74
3422.02
3447.49
3474.18
3500.54
3523.92
3539.69
3539.38
3507.39
3414.77
3207.43
2784.19
1956.21
506.413
2435
15000
15000
14999.9
14999.9
14999.8
14999.7
14999.5
14999.3
14999.1
14998.8
14998.5
14998.1
14997.8
14997.4
14997
14996.5
14996.2
14995.8
14995.5
14995.2
14995
14994.9
14994.8
14994.8
14994.8
14994.9
14995
14995.2
14995.5
14995.7
14996
14996.3
14996.7
14997
14997.3
14997.6
14997.9
14998.1
14998.4
14998.6
14998.8
14999
14999.1
14999.3
14999.4
14999.5
14999.5
14999.6
14999.6
14999.6
14999.6
14999.6
14999.6
14999.5
14999.4
14999.3
14999.2
14999
14998.8
14998.5
14998.2
14997.8
14997.4
14996.8
14996.2
14995.4
14994.5
14993.4
14992.1
14990.6
14988.8
14986.7
14984.3
14981.5
14978.3
14974.5
14970.2
14965.2
14959.5
14952.9
14945.4
14936.8
14927.1
14916.1
14903.7
14889.6
14873.8
14856.1
14836.2
14814
14789.3
14761.9
14731.5
14697.9
14660.8
14620
14575.2
14526.2
14472.7
14414.4
14351
14282.4
14208.2
14128.1
14041.9
13949.5
13850.5
13744.7
13632
13512.3
13385.3
13251
13109.3
12960.2
12803.6
12639.5
12468.1
12289.5
12103.7
11911.1
11711.7
11505.9
11294
11076.4
10853.4
10625.4
10393
10156.6
9916.8
9674.07
9429.02
9182.24
8934.36
8685.99
8437.76
8190.32
7944.28
7700.29
7458.96
7220.9
6986.68
6756.89
6532.06
6312.7
6099.29
5892.29
5692.1
5499.1
5313.63
5135.98
4966.4
4805.11
4652.27
4508.02
4372.44
4245.58
4127.45
4018.03
3917.26
3825.02
3741.21
3665.67
3598.21
3538.62
3486.68
3442.13
3404.71
3374.13
3350.11
3332.32
3320.46
3314.2
3313.21
3317.15
3325.68
3338.42
3355
3374.99
3397.88
3422.99
3449.36
3475.44
3498.64
3514.34
3514.17
3482.72
3391.42
3187.2
2771.37
1959.77
524.227
2435
15000
15000
14999.9
14999.9
14999.8
14999.6
14999.5
14999.2
14998.9
14998.6
14998.2
14997.8
14997.4
14996.9
14996.4
14995.9
14995.4
14995
14994.6
14994.3
14994
14993.9
14993.8
14993.7
14993.8
14993.9
14994
14994.3
14994.5
14994.9
14995.2
14995.6
14995.9
14996.3
14996.7
14997.1
14997.4
14997.7
14998
14998.3
14998.5
14998.8
14999
14999.1
14999.3
14999.4
14999.5
14999.5
14999.6
14999.6
14999.6
14999.6
14999.6
14999.5
14999.4
14999.3
14999.2
14999
14998.8
14998.5
14998.2
14997.8
14997.4
14996.8
14996.2
14995.4
14994.5
14993.4
14992.1
14990.6
14988.8
14986.8
14984.4
14981.6
14978.3
14974.6
14970.2
14965.3
14959.5
14953
14945.5
14936.9
14927.2
14916.3
14903.8
14889.8
14874
14856.3
14836.5
14814.3
14789.7
14762.3
14731.9
14698.3
14661.3
14620.5
14575.8
14526.8
14473.4
14415.1
14351.9
14283.3
14209.1
14129.1
14043
13950.6
13851.7
13746
13633.4
13513.7
13386.8
13252.6
13111
12961.9
12805.3
12641.4
12470
12291.4
12105.7
11913
11713.7
11507.9
11296
11078.3
10855.2
10627.2
10394.7
10158.2
9918.19
9675.29
9430.06
9183.08
8934.96
8686.33
8437.82
8190.07
7943.7
7699.34
7457.62
7219.14
6984.49
6754.23
6528.9
6309.02
6095.07
5887.51
5686.73
5493.13
5307.03
5128.73
4958.49
4796.52
4642.99
4498.04
4361.74
4234.16
4115.3
4005.15
3903.63
3810.66
3726.11
3649.83
3581.63
3521.31
3468.65
3423.39
3385.27
3354
3329.3
3310.86
3298.37
3291.49
3289.9
3293.26
3301.23
3313.45
3329.53
3349.05
3371.5
3396.21
3422.22
3448.01
3470.98
3486.59
3486.55
3455.63
3365.64
3164.31
2754.9
1958.46
527.368
2435
15000
15000
14999.9
14999.8
14999.7
14999.6
14999.4
14999.1
14998.8
14998.4
14998
14997.5
14997
14996.4
14995.8
14995.3
14994.7
14994.2
14993.8
14993.4
14993.1
14992.8
14992.7
14992.6
14992.7
14992.8
14993
14993.2
14993.5
14993.9
14994.3
14994.7
14995.2
14995.6
14996.1
14996.5
14996.9
14997.3
14997.6
14998
14998.3
14998.5
14998.7
14998.9
14999.1
14999.3
14999.4
14999.4
14999.5
14999.5
14999.6
14999.6
14999.5
14999.5
14999.4
14999.3
14999.2
14999
14998.8
14998.5
14998.2
14997.8
14997.4
14996.8
14996.2
14995.4
14994.5
14993.4
14992.1
14990.6
14988.9
14986.8
14984.4
14981.6
14978.4
14974.6
14970.3
14965.3
14959.6
14953.1
14945.6
14937.1
14927.4
14916.4
14904
14890
14874.2
14856.5
14836.8
14814.6
14790
14762.6
14732.3
14698.8
14661.8
14621.1
14576.4
14527.5
14474.1
14416
14352.8
14284.2
14210.1
14130.2
14044.2
13951.9
13853
13747.5
13634.9
13515.3
13388.5
13254.4
13112.8
12963.8
12807.3
12643.4
12472.1
12293.5
12107.8
11915.2
11715.8
11510
11298.1
11080.3
10857.2
10629.1
10396.5
10159.8
9919.72
9676.66
9431.23
9184.02
8935.66
8686.75
8437.94
8189.85
7943.12
7698.38
7456.24
7217.31
6982.18
6751.41
6525.56
6305.12
6090.59
5882.42
5681.01
5486.75
5299.98
5120.98
4950.03
4787.33
4633.05
4487.34
4350.27
4221.91
4102.27
3991.31
3889
3795.23
3709.87
3632.79
3563.8
3502.69
3449.25
3403.22
3364.34
3332.33
3306.9
3287.75
3274.55
3267
3264.76
3267.5
3274.87
3286.51
3302.05
3321.06
3343.02
3367.29
3392.91
3418.36
3441.08
3456.57
3456.63
3426.17
3337.28
3138.14
2732.65
1944.09
525.029
2435
15000
15000
14999.9
14999.8
14999.7
14999.5
14999.3
14999
14998.7
14998.2
14997.7
14997.2
14996.6
14996
14995.3
14994.7
14994
14993.4
14992.9
14992.5
14992.1
14991.8
14991.6
14991.5
14991.6
14991.7
14991.9
14992.2
14992.5
14992.9
14993.4
14993.9
14994.4
14994.9
14995.4
14995.9
14996.4
14996.8
14997.2
14997.6
14998
14998.3
14998.5
14998.8
14999
14999.1
14999.3
14999.4
14999.4
14999.5
14999.5
14999.5
14999.5
14999.5
14999.4
14999.3
14999.2
14999
14998.8
14998.5
14998.2
14997.8
14997.4
14996.8
14996.2
14995.4
14994.5
14993.4
14992.1
14990.6
14988.9
14986.8
14984.4
14981.6
14978.4
14974.7
14970.4
14965.4
14959.7
14953.2
14945.7
14937.2
14927.5
14916.6
14904.2
14890.2
14874.5
14856.8
14837.1
14815
14790.4
14763.1
14732.8
14699.3
14662.4
14621.7
14577.1
14528.3
14475
14416.9
14353.7
14285.3
14211.3
14131.4
14045.5
13953.3
13854.5
13749
13636.6
13517.1
13390.3
13256.3
13114.8
12965.8
12809.4
12645.5
12474.3
12295.8
12110.1
11917.5
11718.1
11512.3
11300.3
11082.6
10859.4
10631.2
10398.5
10161.7
9921.42
9678.17
9432.53
9185.09
8936.46
8687.26
8438.12
8189.68
7942.57
7697.41
7454.82
7215.42
6979.78
6748.48
6522.06
6301.03
6085.88
5877.06
5674.98
5480.02
5292.52
5112.79
4941.07
4777.59
4622.52
4475.99
4338.1
4208.91
4088.42
3976.62
3873.45
3778.82
3692.61
3614.67
3544.83
3482.88
3428.59
3381.74
3342.04
3309.23
3283.02
3263.1
3249.16
3240.88
3237.94
3240
3246.72
3257.75
3272.69
3291.14
3312.59
3336.38
3361.56
3386.64
3409.08
3424.41
3424.51
3394.42
3306.33
3108.33
2702.97
1905.63
506.791
2435
15000
15000
14999.9
14999.8
14999.7
14999.5
14999.2
14998.9
14998.5
14998.1
14997.5
14996.9
14996.3
14995.6
14994.8
14994.1
14993.4
14992.7
14992.1
14991.6
14991.2
14990.8
14990.6
14990.5
14990.5
14990.6
14990.8
14991.1
14991.5
14992
14992.5
14993
14993.6
14994.1
14994.7
14995.3
14995.8
14996.3
14996.8
14997.2
14997.6
14998
14998.3
14998.6
14998.8
14999
14999.2
14999.3
14999.4
14999.4
14999.5
14999.5
14999.5
14999.4
14999.4
14999.3
14999.1
14999
14998.8
14998.5
14998.2
14997.8
14997.4
14996.8
14996.2
14995.4
14994.5
14993.4
14992.2
14990.7
14988.9
14986.9
14984.5
14981.7
14978.5
14974.7
14970.4
14965.5
14959.8
14953.3
14945.8
14937.3
14927.7
14916.8
14904.4
14890.4
14874.7
14857.1
14837.4
14815.4
14790.8
14763.5
14733.3
14699.8
14663
14622.4
14577.9
14529.1
14475.8
14417.8
14354.8
14286.4
14212.5
14132.7
14046.9
13954.8
13856.1
13750.7
13638.3
13518.9
13392.3
13258.3
13116.9
12968
12811.7
12647.9
12476.7
12298.2
12112.6
11920
11720.6
11514.8
11302.8
11085
10861.7
10633.4
10400.6
10163.7
9923.27
9679.83
9433.97
9186.28
8937.37
8687.87
8438.39
8189.57
7942.05
7696.46
7453.4
7213.5
6977.33
6745.46
6518.44
6296.78
6080.98
5871.47
5668.68
5472.98
5284.73
5104.21
4931.68
4767.38
4611.46
4464.07
4325.31
4195.23
4073.85
3961.15
3857.07
3761.53
3674.41
3595.57
3524.82
3461.97
3406.8
3359.06
3318.5
3284.83
3257.78
3237.05
3222.31
3213.26
3209.57
3210.91
3216.94
3227.29
3241.61
3259.46
3280.34
3303.62
3328.33
3353
3375.13
3390.27
3390.37
3360.59
3273.25
3076.53
2672.67
1874.84
500.185
2435
15000
15000
14999.9
14999.8
14999.7
14999.5
14999.2
14998.9
14998.5
14998
14997.4
14996.7
14996
14995.3
14994.5
14993.7
14992.9
14992.1
14991.4
14990.8
14990.3
14989.9
14989.7
14989.5
14989.5
14989.6
14989.8
14990.1
14990.5
14991
14991.6
14992.2
14992.8
14993.4
14994
14994.7
14995.3
14995.8
14996.4
14996.9
14997.3
14997.7
14998.1
14998.4
14998.6
14998.9
14999.1
14999.2
14999.3
14999.4
14999.4
14999.5
14999.5
14999.4
14999.4
14999.3
14999.1
14999
14998.8
14998.5
14998.2
14997.8
14997.4
14996.8
14996.2
14995.4
14994.5
14993.4
14992.2
14990.7
14988.9
14986.9
14984.5
14981.7
14978.5
14974.8
14970.5
14965.6
14959.9
14953.4
14946
14937.5
14927.9
14916.9
14904.6
14890.7
14875
14857.4
14837.7
14815.7
14791.2
14764
14733.8
14700.4
14663.6
14623.1
14578.6
14530
14476.8
14418.8
14355.9
14287.6
14213.8
14134.1
14048.4
13956.3
13857.8
13752.5
13640.2
13520.9
13394.3
13260.5
13119.1
12970.4
12814.1
12650.4
12479.2
12300.8
12115.2
11922.6
11723.3
11517.5
11305.4
11087.6
10864.2
10635.9
10402.9
10165.9
9925.27
9681.64
9435.55
9187.6
8938.41
8688.58
8438.74
8189.54
7941.6
7695.54
7452
7211.56
6974.83
6742.38
6514.73
6292.42
6075.92
5865.69
5662.16
5465.69
5276.63
5095.29
4921.92
4756.75
4599.94
4451.66
4311.98
4180.97
4058.65
3945
3839.96
3743.47
3655.39
3575.59
3503.89
3440.09
3383.98
3335.31
3293.83
3259.27
3231.33
3209.73
3194.15
3184.28
3179.8
3180.37
3185.65
3195.31
3208.95
3226.16
3246.44
3269.16
3293.37
3317.61
3339.38
3354.31
3354.4
3324.95
3238.55
3043.86
2644.43
1860.08
498.786
2435
15000
15000
14999.9
14999.8
14999.6
14999.4
14999.2
14998.8
14998.4
14997.9
14997.3
14996.6
14995.8
14995
14994.2
14993.3
14992.5
14991.7
14990.9
14990.2
14989.7
14989.2
14988.9
14988.7
14988.6
14988.7
14988.9
14989.2
14989.6
14990.2
14990.7
14991.4
14992
14992.7
14993.4
14994.1
14994.8
14995.4
14996
14996.5
14997
14997.5
14997.9
14998.2
14998.5
14998.7
14999
14999.1
14999.2
14999.3
14999.4
14999.4
14999.4
14999.4
14999.3
14999.3
14999.1
14999
14998.8
14998.5
14998.2
14997.8
14997.4
14996.9
14996.2
14995.4
14994.5
14993.5
14992.2
14990.7
14989
14986.9
14984.6
14981.8
14978.6
14974.9
14970.6
14965.7
14960
14953.5
14946.1
14937.6
14928
14917.2
14904.8
14890.9
14875.3
14857.8
14838.1
14816.2
14791.7
14764.5
14734.4
14701.1
14664.3
14623.9
14579.5
14530.9
14477.8
14419.9
14357
14288.9
14215.1
14135.6
14049.9
13958
13859.5
13754.3
13642.2
13523
13396.5
13262.8
13121.5
12972.9
12816.7
12653
12482
12303.6
12118
11925.5
11726.1
11520.3
11308.3
11090.3
10866.9
10638.5
10405.4
10168.2
9927.44
9683.6
9437.27
9189.06
8939.56
8689.4
8439.19
8189.59
7941.21
7694.68
7450.62
7209.64
6972.33
6739.25
6510.96
6287.96
6070.75
5859.78
5655.46
5458.19
5268.3
5086.09
4911.84
4745.77
4588.04
4438.81
4298.18
4166.2
4042.89
3928.25
3822.22
3724.73
3635.65
3554.85
3482.15
3417.35
3360.26
3310.61
3268.17
3232.66
3203.8
3181.29
3164.82
3154.09
3148.76
3148.53
3153.03
3161.94
3174.86
3191.4
3211.05
3233.17
3256.85
3280.61
3302.01
3316.7
3316.79
3287.75
3202.55
3010.8
2618.38
1850.67
501.406
2435
15000
15000
14999.9
14999.8
14999.6
14999.4
14999.2
14998.8
14998.4
14997.8
14997.2
14996.5
14995.7
14994.9
14994
14993.1
14992.2
14991.3
14990.5
14989.8
14989.2
14988.6
14988.3
14988
14987.9
14988
14988.2
14988.5
14988.9
14989.4
14990
14990.7
14991.4
14992.1
14992.9
14993.6
14994.3
14995
14995.6
14996.2
14996.7
14997.2
14997.6
14998
14998.3
14998.6
14998.9
14999
14999.2
14999.3
14999.4
14999.4
14999.4
14999.4
14999.3
14999.3
14999.1
14999
14998.8
14998.5
14998.2
14997.8
14997.4
14996.9
14996.2
14995.5
14994.6
14993.5
14992.2
14990.7
14989
14987
14984.6
14981.8
14978.6
14974.9
14970.7
14965.8
14960.1
14953.6
14946.2
14937.8
14928.2
14917.4
14905.1
14891.2
14875.6
14858.1
14838.5
14816.6
14792.2
14765.1
14735
14701.7
14665
14624.7
14580.4
14531.8
14478.8
14421.1
14358.3
14290.2
14216.6
14137.1
14051.6
13959.8
13861.4
13756.3
13644.3
13525.2
13398.9
13265.2
13124.1
12975.5
12819.4
12655.8
12484.8
12306.5
12121
11928.5
11729.2
11523.3
11311.2
11093.3
10869.8
10641.2
10408.1
10170.7
9929.76
9685.71
9439.14
9190.66
8940.85
8690.34
8439.75
8189.73
7940.9
7693.88
7449.29
7207.75
6969.84
6736.12
6507.16
6283.45
6065.5
5853.75
5648.63
5450.53
5259.77
5076.68
4901.52
4734.5
4575.82
4425.62
4283.99
4151
4026.68
3911.01
3803.95
3705.41
3615.29
3533.44
3459.7
3393.88
3335.76
3285.1
3241.66
3205.16
3175.32
3151.86
3134.46
3122.83
3116.63
3115.54
3119.23
3127.34
3139.52
3155.34
3174.32
3195.82
3218.92
3242.19
3263.18
3277.62
3277.71
3249.12
3165.26
2976.69
2591.43
1838.93
505.25
2435
15000
15000
14999.9
14999.8
14999.7
14999.5
14999.2
14998.8
14998.4
14997.9
14997.2
14996.5
14995.7
14994.9
14994
14993
14992.1
14991.2
14990.3
14989.5
14988.9
14988.3
14987.9
14987.6
14987.4
14987.5
14987.6
14987.9
14988.3
14988.8
14989.5
14990.1
14990.9
14991.6
14992.4
14993.1
14993.9
14994.6
14995.3
14995.9
14996.5
14997
14997.5
14997.9
14998.2
14998.5
14998.8
14999
14999.1
14999.2
14999.3
14999.4
14999.4
14999.4
14999.3
14999.2
14999.1
14999
14998.8
14998.5
14998.2
14997.9
14997.4
14996.9
14996.2
14995.5
14994.6
14993.5
14992.2
14990.8
14989
14987
14984.6
14981.9
14978.7
14975
14970.8
14965.9
14960.2
14953.8
14946.4
14938
14928.4
14917.6
14905.3
14891.5
14876
14858.5
14838.9
14817.1
14792.7
14765.6
14735.6
14702.4
14665.8
14625.5
14581.3
14532.8
14479.9
14422.2
14359.6
14291.6
14218.1
14138.7
14053.3
13961.6
13863.4
13758.4
13646.5
13527.5
13401.3
13267.7
13126.7
12978.2
12822.2
12658.7
12487.8
12309.6
12124.1
11931.6
11732.3
11526.5
11314.4
11096.4
10872.8
10644.2
10410.9
10173.4
9932.23
9687.97
9441.16
9192.39
8942.26
8691.4
8440.43
8189.98
7940.68
7693.15
7448.03
7205.91
6967.38
6733.01
6503.35
6278.92
6060.21
5847.66
5641.72
5442.75
5251.11
5067.1
4891
4723.02
4563.35
4412.14
4269.49
4135.46
4010.09
3893.36
3785.23
3685.62
3594.42
3511.5
3436.68
3369.79
3310.6
3258.89
3214.41
3176.88
3146.04
3121.59
3103.23
3090.65
3083.53
3081.56
3084.39
3091.68
3103.07
3118.15
3136.42
3157.26
3179.76
3202.5
3223.07
3237.23
3237.31
3209.16
3126.59
2940.8
2560.71
1815.04
502.37
2435
15000
15000
14999.9
14999.8
14999.7
14999.5
14999.2
14998.9
14998.4
14997.9
14997.3
14996.6
14995.8
14994.9
14994
14993.1
14992.1
14991.2
14990.3
14989.5
14988.8
14988.2
14987.7
14987.4
14987.2
14987.2
14987.3
14987.5
14987.9
14988.4
14989.1
14989.7
14990.5
14991.2
14992
14992.8
14993.6
14994.3
14995
14995.7
14996.3
14996.8
14997.3
14997.7
14998.1
14998.4
14998.7
14998.9
14999.1
14999.2
14999.3
14999.3
14999.4
14999.4
14999.3
14999.2
14999.1
14999
14998.8
14998.5
14998.2
14997.9
14997.4
14996.9
14996.2
14995.5
14994.6
14993.5
14992.3
14990.8
14989.1
14987.1
14984.7
14982
14978.8
14975.1
14970.9
14966
14960.3
14953.9
14946.6
14938.2
14928.6
14917.8
14905.6
14891.8
14876.3
14858.9
14839.3
14817.5
14793.2
14766.2
14736.3
14703.2
14666.6
14626.4
14582.2
14533.9
14481.1
14423.5
14360.9
14293
14219.6
14140.4
14055.1
13963.5
13865.4
13760.6
13648.8
13529.9
13403.8
13270.4
13129.5
12981.1
12825.2
12661.8
12491
12312.8
12127.4
11934.9
11735.6
11529.8
11317.7
11099.6
10876
10647.3
10413.8
10176.2
9934.86
9690.38
9443.32
9194.26
8943.81
8692.59
8441.22
8190.33
7940.56
7692.52
7446.85
7204.13
6964.97
6729.93
6499.57
6274.39
6054.9
5841.54
5634.75
5434.9
5242.36
5057.41
4880.34
4711.37
4550.69
4398.45
4254.75
4119.66
3993.21
3875.39
3766.16
3665.44
3573.14
3489.11
3413.19
3345.19
3284.91
3232.11
3186.55
3147.97
3116.09
3090.61
3071.25
3057.7
3049.63
3046.74
3048.68
3055.12
3065.69
3079.98
3097.52
3117.67
3139.54
3161.72
3181.83
3195.7
3195.74
3168.02
3086.7
2903.8
2530.17
1801.03
502.411
2435
15000
15000
14999.9
14999.8
14999.7
14999.5
14999.2
14998.9
14998.5
14998
14997.4
14996.7
14996
14995.1
14994.2
14993.3
14992.3
14991.4
14990.5
14989.6
14988.9
14988.2
14987.7
14987.4
14987.1
14987.1
14987.2
14987.4
14987.8
14988.3
14988.8
14989.5
14990.2
14991
14991.8
14992.6
14993.4
14994.1
14994.8
14995.5
14996.1
14996.7
14997.2
14997.6
14998
14998.4
14998.6
14998.9
14999
14999.2
14999.3
14999.3
14999.4
14999.3
14999.3
14999.2
14999.1
14999
14998.8
14998.5
14998.2
14997.9
14997.4
14996.9
14996.3
14995.5
14994.6
14993.5
14992.3
14990.8
14989.1
14987.1
14984.8
14982
14978.9
14975.2
14971
14966.1
14960.5
14954.1
14946.7
14938.4
14928.9
14918.1
14905.9
14892.1
14876.7
14859.3
14839.8
14818
14793.8
14766.9
14737
14703.9
14667.5
14627.3
14583.3
14535
14482.3
14424.8
14362.3
14294.6
14221.3
14142.2
14057
13965.5
13867.6
13762.8
13651.2
13532.5
13406.5
13273.1
13132.4
12984.1
12828.3
12665
12494.2
12316.1
12130.8
11938.4
11739.1
11533.3
11321.1
11103
10879.4
10650.5
10417
10179.2
9937.64
9692.94
9445.62
9196.28
8945.5
8693.91
8442.14
8190.81
7940.55
7691.99
7445.75
7202.44
6962.63
6726.92
6495.83
6269.9
6049.61
5835.43
5627.77
5427.03
5233.56
5047.66
4869.6
4699.63
4537.92
4384.62
4239.85
4103.67
3976.11
3857.18