<?xml version="1.0"?>
<VTKFile type="ImageData" version="0.1" byte_order="LittleEndian">
  <ImageData Origin="0 0 0" Spacing="1e-05 1e-05 1e-05" WholeExtent="0 191 0 191 0 0">
    <Piece Extent="0 191 0 191 0 0">
      <CellData Scalars="T">
        <DataArray type="Float32" Name="T" format="ascii" NumberOfComponents="1">
672.648
15000
15000
15000
15000
15000
15000
14999.9
14999.9
14999.9
14999.9
14999.8
14999.8
14999.8
14999.8
14999.7
14999.7
14999.7
14999.7
14999.7
14999.6
14999.6
14999.6
14999.7
14999.7
14999.7
14999.7
14999.7
14999.7
14999.8
14999.8
14999.8
14999.8
14999.8
14999.9
14999.9
14999.9
14999.9
14999.9
14999.9
14999.9
14999.9
14999.9
14999.9
14999.9
14999.9
14999.9
14999.8
14999.8
14999.7
14999.7
14999.6
14999.5
14999.4
14999.3
14999.1
14998.9
14998.6
14998.3
14998
14997.5
14997
14996.4
14995.6
14994.8
14993.7
14992.5
14991
14989.3
14987.2
14984.9
14982.1
14978.9
14975.2
14970.9
14965.9
14960.2
14953.7
14946.1
14937.6
14927.8
14916.7
14904.1
14889.9
14873.9
14855.9
14835.7
14813.1
14788
14759.9
14728.8
14694.4
14656.4
14614.6
14568.6
14518.2
14463.2
14403.2
14337.9
14267.1
14190.6
14108
14019
13923.6
13821.3
13712.1
13595.7
13472
13340.8
13202.1
13055.8
12901.8
12740.2
12571.1
12394.4
12210.3
12019.1
11820.9
11615.9
11404.6
11187.2
10964.1
10735.8
10502.8
10265.4
10024.4
9780.19
9533.43
9284.73
9034.72
8784.05
8533.37
8283.35
8034.65
7787.93
7543.83
7302.99
7066.03
6833.54
6606.1
6384.23
6168.45
5959.23
5757
5562.16
5375.06
5196.01
5025.27
4863.07
4709.58
4564.94
4429.23
4302.51
4184.79
4076.02
3976.15
3885.06
3802.63
3728.68
3663.02
3605.42
3555.64
3513.42
3478.47
3450.49
3429.17
3414.19
3405.21
3401.89
3403.89
3410.87
3422.47
3438.33
3458.13
3481.49
3508.06
3537.49
3569.38
3603.31
3638.75
3675.01
3711.04
3745.16
3774.43
3793.5
3792.48
3752.68
3638.36
3380.06
2838.91
1722.87
334.491
2435
15000
15000
15000
15000
15000
15000
14999.9
14999.9
14999.9
14999.8
14999.8
14999.8
14999.7
14999.7
14999.7
14999.6
14999.6
14999.6
14999.6
14999.6
14999.6
14999.6
14999.6
14999.6
14999.6
14999.6
14999.7
14999.7
14999.7
14999.7
14999.8
14999.8
14999.8
14999.8
14999.9
14999.9
14999.9
14999.9
14999.9
14999.9
14999.9
14999.9
14999.9
14999.9
14999.9
14999.9
14999.8
14999.8
14999.7
14999.7
14999.6
14999.5
14999.4
14999.3
14999.1
14998.9
14998.6
14998.3
14998
14997.5
14997
14996.4
14995.6
14994.8
14993.7
14992.5
14991
14989.3
14987.3
14984.9
14982.1
14978.9
14975.2
14970.9
14965.9
14960.2
14953.7
14946.2
14937.6
14927.8
14916.7
14904.1
14889.9
14873.9
14855.9
14835.7
14813.2
14788
14760
14728.9
14694.5
14656.5
14614.6
14568.7
14518.3
14463.2
14403.2
14338
14267.2
14190.7
14108.1
14019.2
13923.7
13821.4
13712.2
13595.8
13472.1
13341
13202.3
13056
12902
12740.4
12571.3
12394.6
12210.5
12019.3
11821.1
11616.1
11404.8
11187.4
10964.3
10736
10502.9
10265.6
10024.5
9780.32
9533.54
9284.82
9034.78
8784.08
8533.37
8283.32
8034.58
7787.82
7543.68
7302.79
7065.78
6833.24
6605.74
6383.81
6167.97
5958.69
5756.4
5561.49
5374.32
5195.19
5024.38
4862.1
4708.53
4563.81
4428.03
4301.22
4183.42
4074.57
3974.61
3883.44
3800.93
3726.89
3661.15
3603.47
3553.61
3511.31
3476.28
3448.23
3426.83
3411.78
3402.73
3399.34
3401.28
3408.19
3419.73
3435.54
3455.28
3478.59
3505.12
3534.5
3566.35
3600.24
3635.65
3671.88
3707.91
3742.04
3771.35
3790.59
3790.02
3751.51
3641.04
3395.15
2897.72
1948.81
481.966
2435
15000
15000
15000
15000
15000
14999.9
14999.9
14999.9
14999.8
14999.8
14999.7
14999.7
14999.6
14999.6
14999.5
14999.5
14999.5
14999.4
14999.4
14999.4
14999.4
14999.4
14999.4
14999.5
14999.5
14999.5
14999.6
14999.6
14999.6
14999.7
14999.7
14999.7
14999.8
14999.8
14999.8
14999.8
14999.9
14999.9
14999.9
14999.9
14999.9
14999.9
14999.9
14999.9
14999.9
14999.9
14999.8
14999.8
14999.7
14999.7
14999.6
14999.5
14999.4
14999.3
14999.1
14998.9
14998.6
14998.3
14998
14997.5
14997
14996.4
14995.6
14994.8
14993.7
14992.5
14991
14989.3
14987.3
14984.9
14982.1
14978.9
14975.2
14970.9
14966
14960.2
14953.7
14946.2
14937.6
14927.8
14916.7
14904.2
14890
14874
14856
14835.8
14813.2
14788.1
14760
14729
14694.6
14656.6
14614.7
14568.8
14518.4
14463.4
14403.4
14338.2
14267.4
14190.9
14108.3
14019.4
13923.9
13821.7
13712.5
13596.1
13472.5
13341.3
13202.6
13056.3
12902.4
12740.8
12571.7
12395
12210.9
12019.7
11821.5
11616.5
11405.2
11187.8
10964.7
10736.4
10503.3
10265.9
10024.8
9780.59
9533.77
9285
9034.91
8784.15
8533.38
8283.26
8034.45
7787.6
7543.38
7302.4
7065.29
6832.65
6605.03
6382.99
6167.03
5957.62
5755.19
5560.15
5372.83
5193.56
5022.6
4860.17
4706.45
4561.57
4425.62
4298.66
4180.68
4071.67
3971.55
3880.22
3797.53
3723.33
3657.43
3599.58
3549.57
3507.11
3471.92
3443.72
3422.17
3406.97
3397.78
3394.26
3396.07
3402.85
3414.27
3429.97
3449.6
3472.8
3499.24
3528.53
3560.3
3594.12
3629.47
3665.65
3701.64
3735.78
3765.18
3784.66
3784.73
3747.83
3641.36
3405.27
2929.98
2018.85
482.452
2435
15000
15000
15000
15000
14999.9
14999.9
14999.8
14999.8
14999.7
14999.7
14999.6
14999.5
14999.5
14999.4
14999.3
14999.3
14999.2
14999.2
14999.2
14999.2
14999.2
14999.2
14999.2
14999.3
14999.3
14999.3
14999.4
14999.4
14999.5
14999.5
14999.6
14999.6
14999.7
14999.7
14999.8
14999.8
14999.8
14999.8
14999.9
14999.9
14999.9
14999.9
14999.9
14999.9
14999.9
14999.9
14999.8
14999.8
14999.7
14999.7
14999.6
14999.5
14999.4
14999.3
14999.1
14998.9
14998.6
14998.3
14998
14997.5
14997
14996.4
14995.6
14994.8
14993.7
14992.5
14991
14989.3
14987.3
14984.9
14982.2
14978.9
14975.2
14970.9
14966
14960.3
14953.7
14946.2
14937.6
14927.9
14916.8
14904.2
14890
14874
14856
14835.9
14813.3
14788.2
14760.2
14729.1
14694.7
14656.7
14614.9
14569
14518.6
14463.6
14403.6
14338.4
14267.7
14191.2
14108.6
14019.7
13924.3
13822.1
13712.9
13596.6
13472.9
13341.8
13203.2
13056.9
12903
12741.4
12572.2
12395.6
12211.6
12020.3
11822.1
11617.2
11405.8
11188.4
10965.3
10736.9
10503.8
10266.4
10025.3
9780.99
9534.11
9285.27
9035.11
8784.27
8533.4
8283.18
8034.25
7787.29
7542.93
7301.82
7064.56
6831.76
6603.98
6381.77
6165.62
5956.02
5753.4
5558.15
5370.63
5191.14
5019.96
4857.3
4703.34
4558.22
4422.04
4294.83
4176.61
4067.35
3966.98
3875.4
3792.47
3718.03
3651.87
3593.79
3543.53
3500.83
3465.42
3436.98
3415.22
3399.8
3390.4
3386.67
3388.28
3394.88
3406.12
3421.65
3441.11
3464.17
3490.46
3519.62
3551.27
3584.98
3620.23
3656.34
3692.28
3726.41
3755.88
3775.61
3776.3
3740.79
3637.35
3407.49
2944.04
2053.74
486.68
2435
15000
15000
15000
14999.9
14999.9
14999.8
14999.8
14999.7
14999.6
14999.5
14999.4
14999.3
14999.2
14999.1
14999
14999
14998.9
14998.9
14998.8
14998.8
14998.8
14998.9
14998.9
14998.9
14999
14999.1
14999.1
14999.2
14999.3
14999.4
14999.4
14999.5
14999.6
14999.6
14999.7
14999.7
14999.8
14999.8
14999.8
14999.8
14999.9
14999.9
14999.9
14999.9
14999.9
14999.8
14999.8
14999.8
14999.7
14999.7
14999.6
14999.5
14999.4
14999.3
14999.1
14998.9
14998.6
14998.3
14998
14997.5
14997
14996.4
14995.7
14994.8
14993.7
14992.5
14991
14989.3
14987.3
14984.9
14982.2
14979
14975.3
14971
14966
14960.3
14953.7
14946.2
14937.7
14927.9
14916.8
14904.3
14890.1
14874.1
14856.1
14836
14813.4
14788.3
14760.3
14729.3
14694.9
14656.9
14615.1
14569.2
14518.9
14463.9
14404
14338.8
14268.1
14191.6
14109.1
14020.2
13924.8
13822.7
13713.5
13597.2
13473.6
13342.5
13203.9
13057.6
12903.7
12742.2
12573
12396.4
12212.4
12021.2
11822.9
11618
11406.6
11189.2
10966.1
10737.7
10504.5
10267.1
10025.9
9781.52
9534.57
9285.64
9035.38
8784.42
8533.43
8283.08
8034
7786.88
7542.35
7301.06
7063.6
6830.6
6602.6
6380.15
6163.77
5953.92
5751.04
5555.52
5367.71
5187.94
5016.46
4853.5
4699.24
4553.81
4417.3
4289.77
4171.23
4061.64
3960.95
3869.04
3785.78
3711
3644.53
3586.12
3535.54
3492.53
3456.81
3428.07
3406.01
3390.3
3380.62
3376.63
3377.98
3384.33
3395.32
3410.62
3429.88
3452.73
3478.83
3507.82
3539.31
3572.87
3607.99
3643.99
3679.86
3713.96
3743.48
3763.42
3764.6
3730.12
3628.66
3402.01
2941.82
2044.93
483.986
2435
15000
15000
15000
14999.9
14999.8
14999.8
14999.7
14999.6
14999.4
14999.3
14999.1
14999
14998.8
14998.7
14998.6
14998.5
14998.4
14998.4
14998.4
14998.3
14998.4
14998.4
14998.5
14998.5
14998.6
14998.7
14998.8
14998.9
14999
14999.1
14999.2
14999.3
14999.4
14999.5
14999.5
14999.6
14999.7
14999.7
14999.8
14999.8
14999.8
14999.8
14999.9
14999.9
14999.8
14999.8
14999.8
14999.8
14999.7
14999.7
14999.6
14999.5
14999.4
14999.3
14999.1
14998.9
14998.6
14998.3
14998
14997.5
14997
14996.4
14995.7
14994.8
14993.7
14992.5
14991
14989.3
14987.3
14984.9
14982.2
14979
14975.3
14971
14966
14960.3
14953.8
14946.3
14937.7
14928
14916.9
14904.4
14890.2
14874.2
14856.3
14836.1
14813.6
14788.5
14760.5
14729.5
14695.1
14657.2
14615.4
14569.5
14519.2
14464.3
14404.4
14339.2
14268.6
14192.1
14109.6
14020.8
13925.4
13823.3
13714.2
13597.9
13474.3
13343.3
13204.7
13058.5
12904.6
12743.1
12574
12397.4
12213.4
12022.2
11824
11619
11407.7
11190.2
10967
10738.6
10505.4
10267.9
10026.6
9782.19
9535.14
9286.11
9035.72
8784.63
8533.49
8282.96
8033.71
7786.39
7541.65
7300.12
7062.43
6829.17
6600.9
6378.17
6161.49
5951.33
5748.12
5552.27
5364.12
5183.99
5012.15
4848.81
4694.17
4548.35
4411.45
4283.52
4164.58
4054.59
3953.48
3861.16
3777.5
3702.32
3635.43
3576.63
3525.66
3482.26
3446.15
3417.04
3394.61
3378.54
3368.52
3364.19
3365.21
3371.25
3381.95
3396.97
3415.95
3438.55
3464.41
3493.18
3524.47
3557.85
3592.81
3628.67
3664.43
3698.47
3728.02
3748.1
3749.65
3715.91
3615.72
3390.91
2932.3
2032.31
480.115
2435
15000
15000
14999.9
14999.9
14999.8
14999.7
14999.5
14999.4
14999.2
14999
14998.8
14998.6
14998.4
14998.2
14998
14997.9
14997.8
14997.7
14997.7
14997.7
14997.7
14997.8
14997.9
14998
14998.1
14998.2
14998.3
14998.5
14998.6
14998.8
14998.9
14999
14999.2
14999.3
14999.4
14999.5
14999.6
14999.6
14999.7
14999.7
14999.8
14999.8
14999.8
14999.8
14999.8
14999.8
14999.8
14999.8
14999.7
14999.7
14999.6
14999.5
14999.4
14999.3
14999.1
14998.9
14998.6
14998.3
14998
14997.6
14997
14996.4
14995.7
14994.8
14993.7
14992.5
14991
14989.3
14987.3
14984.9
14982.2
14979
14975.3
14971
14966.1
14960.4
14953.8
14946.3
14937.8
14928.1
14917
14904.5
14890.3
14874.4
14856.4
14836.3
14813.8
14788.7
14760.7
14729.7
14695.4
14657.5
14615.8
14569.9
14519.7
14464.7
14404.9
14339.8
14269.1
14192.7
14110.3
14021.5
13926.2
13824.1
13715.1
13598.8
13475.3
13344.3
13205.7
13059.6
12905.8
12744.3
12575.2
12398.6
12214.6
12023.4
11825.2
11620.3
11408.9
11191.4
10968.2
10739.8
10506.5
10268.9
10027.6
9783.01
9535.84
9286.68
9036.14
8784.89
8533.57
8282.84
8033.38
7785.82
7540.83
7299.04
7061.06
6827.49
6598.91
6375.84
6158.81
5948.28
5744.69
5548.44
5359.88
5179.33
5007.05
4843.27
4688.17
4541.9
4404.53
4276.13
4156.7
4046.23
3944.64
3851.83
3767.68
3692.02
3624.66
3565.38
3513.93
3470.07
3433.51
3403.95
3381.08
3364.59
3354.15
3349.42
3350.06
3355.72
3366.07
3380.74
3399.41
3421.71
3447.29
3475.79
3506.83
3539.99
3574.76
3610.45
3646.08
3680.04
3709.57
3729.75
3731.58
3698.42
3599.21
3375.79
2918.52
2019.28
479.149
2435
15000
15000
14999.9
14999.8
14999.7
14999.6
14999.4
14999.1
14998.9
14998.6
14998.3
14998.1
14997.8
14997.6
14997.4
14997.2
14997
14997
14996.9
14996.9
14996.9
14997
14997.1
14997.3
14997.4
14997.6
14997.8
14998
14998.2
14998.3
14998.5
14998.7
14998.9
14999
14999.2
14999.3
14999.4
14999.5
14999.6
14999.6
14999.7
14999.7
14999.8
14999.8
14999.8
14999.8
14999.8
14999.8
14999.7
14999.7
14999.6
14999.5
14999.4
14999.3
14999.1
14998.9
14998.7
14998.4
14998
14997.6
14997
14996.4
14995.7
14994.8
14993.7
14992.5
14991
14989.3
14987.3
14985
14982.2
14979
14975.3
14971.1
14966.1
14960.4
14953.9
14946.4
14937.9
14928.2
14917.1
14904.6
14890.4
14874.5
14856.6
14836.5
14814
14788.9
14761
14730
14695.7
14657.9
14616.1
14570.3
14520.1
14465.2
14405.4
14340.4
14269.8
14193.4
14111
14022.3
13927.1
13825
13716
13599.9
13476.4
13345.4
13206.9
13060.8
12907
12745.6
12576.6
12400
12216
12024.9
11826.7
11621.7
11410.3
11192.8
10969.6
10741.1
10507.7
10270.1
10028.6
9783.97
9536.67
9287.36
9036.65
8785.21
8533.68
8282.73
8033.02
7785.2
7539.92
7297.82
7059.51
6825.59
6596.64
6373.19
6155.75
5944.79
5740.76
5544.06
5355.03
5173.99
5001.21
4836.92
4681.3
4534.49
4396.58
4267.64
4147.66
4036.63
3934.48
3841.12
3756.41
3680.19
3612.27
3552.44
3500.45
3456.05
3418.96
3388.88
3365.51
3348.53
3337.6
3332.41
3332.6
3337.83
3347.77
3362.05
3380.34
3402.29
3427.54
3455.74
3486.5
3519.4
3553.93
3589.43
3624.89
3658.73
3688.22
3708.47
3710.55
3677.95
3579.91
3359.02
2908.41
2031.16
482.731
2435
15000
15000
14999.9
14999.8
14999.6
14999.4
14999.2
14998.9
14998.5
14998.2
14997.8
14997.5
14997.1
14996.8
14996.5
14996.3
14996.1
14996
14995.9
14995.9
14996
14996.1
14996.2
14996.4
14996.6
14996.8
14997.1
14997.3
14997.6
14997.8
14998.1
14998.3
14998.5
14998.7
14998.9
14999.1
14999.2
14999.3
14999.5
14999.5
14999.6
14999.7
14999.7
14999.8
14999.8
14999.8
14999.8
14999.7
14999.7
14999.7
14999.6
14999.5
14999.4
14999.3
14999.1
14998.9
14998.7
14998.4
14998
14997.6
14997
14996.4
14995.7
14994.8
14993.8
14992.5
14991.1
14989.3
14987.3
14985
14982.3
14979.1
14975.4
14971.1
14966.2
14960.5
14954
14946.5
14938
14928.3
14917.2
14904.7
14890.6
14874.7
14856.8
14836.7
14814.2
14789.2
14761.3
14730.3
14696.1
14658.3
14616.6
14570.8
14520.7
14465.8
14406.1
14341.1
14270.5
14194.2
14111.9
14023.2
13928.1
13826.1
13717.2
13601.1
13477.6
13346.7
13208.3
13062.2
12908.5
12747.1
12578.1
12401.6
12217.7
12026.5
11828.3
11623.3
11411.9
11194.4
10971.1
10742.6
10509.2
10271.4
10029.9
9785.07
9537.63
9288.15
9037.26
8785.61
8533.85
8282.64
8032.65
7784.53
7538.93
7296.48
7057.8
6823.49
6594.12
6370.23
6152.34
5940.91
5736.38
5539.16
5349.6
5168.01
4994.67
4829.81
4673.6
4526.19
4387.68
4258.11
4137.51
4025.86
3923.08
3829.08
3743.74
3666.89
3598.35
3537.89
3485.29
3440.29
3402.6
3371.93
3347.99
3330.45
3318.98
3313.26
3312.94
3317.69
3327.15
3340.99
3358.86
3380.4
3405.28
3433.13
3463.56
3496.17
3530.44
3565.7
3600.97
3634.68
3664.09
3684.39
3686.71
3654.68
3557.89
3339.7
2895.13
2031.42
494.072
2435
15000
14999.9
14999.8
14999.7
14999.5
14999.3
14998.9
14998.6
14998.2
14997.7
14997.2
14996.8
14996.3
14995.9
14995.6
14995.3
14995
14994.9
14994.8
14994.8
14994.9
14995
14995.1
14995.4
14995.6
14995.9
14996.2
14996.6
14996.9
14997.2
14997.5
14997.8
14998.1
14998.4
14998.6
14998.8
14999
14999.2
14999.3
14999.4
14999.5
14999.6
14999.7
14999.7
14999.7
14999.7
14999.7
14999.7
14999.7
14999.7
14999.6
14999.5
14999.4
14999.3
14999.1
14998.9
14998.7
14998.4
14998
14997.6
14997
14996.4
14995.7
14994.8
14993.8
14992.5
14991.1
14989.4
14987.4
14985
14982.3
14979.1
14975.4
14971.1
14966.2
14960.5
14954
14946.6
14938.1
14928.4
14917.4
14904.9
14890.8
14874.9
14857
14836.9
14814.5
14789.5
14761.6
14730.7
14696.5
14658.7
14617.1
14571.4
14521.3
14466.5
14406.8
14341.8
14271.4
14195.1
14112.9
14024.3
13929.2
13827.3
13718.4
13602.4
13479
13348.2
13209.8
13063.8
12910.2
12748.8
12579.9
12403.4
12219.5
12028.3
11830.1
11625.2
11413.8
11196.2
10972.9
10744.3
10510.8
10272.9
10031.3
9786.33
9538.73
9289.06
9037.97
8786.08
8534.07
8282.58
8032.28
7783.83
7537.87
7295.04
7055.96
6821.21
6591.39
6367.02
6148.62
5936.66
5731.59
5533.8
5343.65
5161.45
4987.49
4821.99
4665.13
4517.06
4377.87
4247.62
4126.33
4013.98
3910.5
3815.81
3729.77
3652.22
3582.98
3521.84
3468.55
3422.87
3384.52
3353.2
3328.62
3310.46
3298.39
3292.08
3291.2
3295.4
3304.34
3317.68
3335.07
3356.17
3380.62
3408.08
3438.15
3470.42
3504.39
3539.39
3574.44
3607.98
3637.31
3657.63
3660.17
3628.69
3532.97
3316.42
2872.28
1995.45
489.431
2435
15000
14999.9
14999.8
14999.6
14999.4
14999.1
14998.7
14998.2
14997.7
14997.2
14996.6
14996
14995.5
14995
14994.5
14994.1
14993.9
14993.7
14993.5
14993.5
14993.6
14993.7
14993.9
14994.2
14994.5
14994.9
14995.3
14995.7
14996.1
14996.5
14996.9
14997.2
14997.6
14997.9
14998.2
14998.5
14998.7
14999
14999.1
14999.3
14999.4
14999.5
14999.6
14999.6
14999.7
14999.7
14999.7
14999.7
14999.7
14999.6
14999.6
14999.5
14999.4
14999.3
14999.1
14998.9
14998.7
14998.4
14998
14997.6
14997
14996.4
14995.7
14994.8
14993.8
14992.5
14991.1
14989.4
14987.4
14985
14982.3
14979.1
14975.5
14971.2
14966.3
14960.6
14954.1
14946.7
14938.2
14928.5
14917.5
14905
14890.9
14875.1
14857.2
14837.2
14814.8
14789.8
14762
14731.1
14696.9
14659.2
14617.6
14572
14521.9
14467.2
14407.5
14342.7
14272.3
14196.1
14113.9
14025.4
13930.4
13828.6
13719.8
13603.8
13480.5
13349.8
13211.5
13065.6
12912
12750.7
12581.8
12405.3
12221.5
12030.4
11832.2
11627.2
11415.8
11198.2
10974.8
10746.1
10512.6
10274.6
10032.8
9787.75
9539.97
9290.1
9038.78
8786.65
8534.36
8282.56
8031.93
7783.12
7536.77
7293.52
7054
6818.78
6588.46
6363.56
6144.61
5932.08
5726.41
5528
5337.21
5154.36
4979.72
4813.52
4655.95
4507.16
4367.23
4236.24
4114.2
4001.09
3896.85
3801.38
3714.58
3636.26
3566.26
3504.36
3450.33
3403.91
3364.83
3332.8
3307.52
3288.68
3275.94
3268.99
3267.48
3271.08
3279.45
3292.24
3309.1
3329.71
3353.7
3380.71
3410.38
3442.29
3475.92
3510.62
3545.43
3578.77
3607.99
3628.33
3631.08
3600.18
3505.62
3291.28
2851.82
1988.58
491.64
2435
15000
14999.9
14999.8
14999.6
14999.3
14998.9
14998.5
14997.9
14997.3
14996.7
14996
14995.3
14994.6
14994
14993.4
14993
14992.6
14992.3
14992.2
14992.1
14992.2
14992.4
14992.6
14992.9
14993.3
14993.7
14994.2
14994.7
14995.2
14995.7
14996.2
14996.6
14997
14997.4
14997.8
14998.2
14998.4
14998.7
14998.9
14999.1
14999.3
14999.4
14999.5
14999.6
14999.6
14999.7
14999.7
14999.7
14999.7
14999.6
14999.6
14999.5
14999.4
14999.3
14999.1
14998.9
14998.7
14998.4
14998
14997.6
14997.1
14996.4
14995.7
14994.8
14993.8
14992.6
14991.1
14989.4
14987.4
14985.1
14982.4
14979.2
14975.5
14971.3
14966.4
14960.7
14954.2
14946.8
14938.3
14928.6
14917.7
14905.2
14891.1
14875.3
14857.5
14837.5
14815.1
14790.2
14762.4
14731.6
14697.4
14659.8
14618.2
14572.6
14522.6
14468
14408.4
14343.6
14273.3
14197.2
14115.1
14026.7
13931.7
13830
13721.3
13605.4
13482.2
13351.6
13213.3
13067.5
12913.9
12752.7
12583.9
12407.5
12223.7
12032.6
11834.4
11629.5
11418
11200.4
10977
10748.2
10514.6
10276.5
10034.6
9789.32
9541.35
9291.27
9039.71
8787.31
8534.72
8282.6
8031.61
7782.41
7535.65
7291.95
7051.95
6816.23
6585.37
6359.91
6140.37
5927.22
5720.91
5521.83
5330.35
5146.79
4971.41
4804.47
4646.13
4496.55
4355.84
4224.04
4101.19
3987.25
3882.19
3785.9
3698.26
3619.12
3548.3
3485.58
3430.74
3383.52
3343.65
3310.85
3284.81
3265.22
3251.77
3244.11
3241.93
3244.87
3252.61
3264.8
3281.1
3301.16
3324.64
3351.18
3380.41
3411.9
3445.17
3479.54
3514.07
3547.2
3576.29
3596.63
3599.62
3569.37
3476.28
3265.27
2833.89
1993.79
501.194
2435
15000
14999.9
14999.8
14999.5
14999.2
14998.8
14998.3
14997.6
14996.9
14996.2
14995.4
14994.6
14993.8
14993
14992.4
14991.8
14991.3
14991
14990.8
14990.7
14990.8
14991
14991.2
14991.6
14992
14992.5
14993.1
14993.6
14994.2
14994.8
14995.4
14995.9
14996.4
14996.9
14997.4
14997.8
14998.1
14998.4
14998.7
14998.9
14999.1
14999.3
14999.4
14999.5
14999.6
14999.6
14999.7
14999.7
14999.7
14999.6
14999.6
14999.5
14999.4
14999.3
14999.1
14998.9
14998.7
14998.4
14998
14997.6
14997.1
14996.4
14995.7
14994.8
14993.8
14992.6
14991.1
14989.4
14987.4
14985.1
14982.4
14979.2
14975.6
14971.3
14966.4
14960.8
14954.3
14946.9
14938.4
14928.8
14917.8
14905.4
14891.4
14875.5
14857.7
14837.8
14815.5
14790.5
14762.8
14732
14698
14660.3
14618.9
14573.3
14523.4
14468.8
14409.3
14344.6
14274.4
14198.4
14116.3
14028
13933.1
13831.5
13722.9
13607.1
13484
13353.5
13215.3
13069.5
12916.1
12754.9
12586.2
12409.8
12226
12035
11836.8
11631.9
11420.4
11202.8
10979.3
10750.5
10516.7
10278.5
10036.5
9791.05
9542.89
9292.58
9040.77
8788.08
8535.17
8282.71
8031.34
7781.73
7534.52
7290.35
7049.84
6813.58
6582.15
6356.09
6135.92
5922.11
5715.11
5515.33
5323.11
5138.79
4962.64
4794.89
4635.74
4485.32
4343.76
4211.1
4087.38
3972.57
3866.63
3769.45
3680.93
3600.9
3529.2
3465.61
3409.9
3361.82
3321.11
3287.47
3260.62
3240.23
3226
3217.59
3214.67
3216.91
3223.98
3235.52
3251.2
3270.67
3293.6
3319.62
3348.37
3379.42
3412.28
3446.3
3480.52
3513.41
3542.35
3562.69
3565.93
3536.38
3444.91
3237.37
2813.31
1987.95
509.509
2435
15000
14999.9
14999.7
14999.5
14999.1
14998.7
14998.1
14997.4
14996.6
14995.8
14994.9
14993.9
14993
14992.2
14991.4
14990.7
14990.2
14989.8
14989.5
14989.4
14989.4
14989.5
14989.8
14990.2
14990.7
14991.3
14991.9
14992.5
14993.2
14993.9
14994.5
14995.2
14995.8
14996.4
14996.9
14997.4
14997.8
14998.1
14998.5
14998.7
14999
14999.2
14999.3
14999.4
14999.5
14999.6
14999.6
14999.6
14999.6
14999.6
14999.6
14999.5
14999.4
14999.3
14999.1
14998.9
14998.7
14998.4
14998
14997.6
14997.1
14996.5
14995.7
14994.9
14993.8
14992.6
14991.2
14989.5
14987.5
14985.2
14982.4
14979.3
14975.6
14971.4
14966.5
14960.9
14954.4
14947
14938.6
14928.9
14918
14905.6
14891.6
14875.8
14858
14838.1
14815.8
14791
14763.3
14732.6
14698.5
14661
14619.6
14574.1
14524.2
14469.8
14410.3
14345.7
14275.5
14199.6
14117.7
14029.5
13934.7
13833.2
13724.6
13609
13486
13355.5
13217.4
13071.8
12918.4
12757.3
12588.6
12412.3
12228.6
12037.6
11839.4
11634.5
11423
11205.3
10981.8
10752.9
10519.1
10280.8
10038.5
9792.94
9544.58
9294.04
9041.95
8788.97
8535.73
8282.9
8031.13
7781.09
7533.41
7288.74
7047.69
6810.86
6578.83
6352.14
6131.3
5916.8
5709.08
5508.54
5315.55
5130.42
4953.45
4784.85
4624.84
4473.54
4331.08
4197.52
4072.87
3957.14
3850.25
3752.14
3662.68
3581.71
3509.07
3444.55
3387.92
3338.93
3297.31
3262.79
3235.07
3213.83
3198.77
3189.56
3185.86
3187.35
3193.69
3204.53
3219.55
3238.4
3260.73
3286.19
3314.42
3344.99
3377.42
3411.05
3444.93
3477.55
3506.33
3526.65
3530.12
3501.25
3411.31
3206.84
2788.53
1973.23
515.343
2401.43
15000
14999.9
14999.7
14999.5
14999.1
14998.6
14998
14997.2
14996.4
14995.5
14994.5
14993.4
14992.4
14991.4
14990.6
14989.8
14989.1
14988.6
14988.3
14988.1
14988.1
14988.2
14988.5
14988.9
14989.4
14990
14990.7
14991.5
14992.2
14993
14993.7
14994.4
14995.1
14995.8
14996.4
14996.9
14997.4
14997.8
14998.2
14998.5
14998.8
14999
14999.2
14999.3
14999.5
14999.5
14999.6
14999.6
14999.6
14999.6
14999.5
14999.5
14999.4
14999.3
14999.1
14998.9
14998.7
14998.4
14998
14997.6
14997.1
14996.5
14995.7
14994.9
14993.8
14992.6
14991.2
14989.5
14987.5
14985.2
14982.5
14979.3
14975.7
14971.5
14966.6
14961
14954.5
14947.2
14938.7
14929.1
14918.2
14905.8
14891.8
14876.1
14858.4
14838.5
14816.2
14791.4
14763.8
14733.1
14699.2
14661.6
14620.3
14574.9
14525.1
14470.7
14411.4
14346.8
14276.8
14201
14119.1
14031
13936.3
13834.9
13726.5
13610.9
13488
13357.7
13219.7
13074.1
12920.8
12759.9
12591.2
12415
12231.3
12040.3
11842.2
11637.3
11425.8
11208.1
10984.5
10755.5
10521.6
10283.2
10040.8
9795
9546.42
9295.64
9043.27
8789.98
8536.39
8283.18
8031
7780.5
7532.33
7287.14
7045.53
6808.11
6575.45
6348.09
6126.56
5911.33
5702.85
5501.52
5307.72
5121.75
4943.91
4774.43
4613.5
4461.28
4317.88
4183.36
4057.75
3941.03
3833.17
3734.07
3643.62
3561.66
3488.04
3422.53
3364.93
3314.97
3272.41
3236.95
3208.31
3186.18
3170.24
3160.17
3155.65
3156.33
3161.9
3172.01
3186.32
3204.49
3226.19
3251.06
3278.73
3308.78
3340.74
3373.95
3407.47
3439.8
3468.38
3488.65
3492.32
3464.04
3375.33
3172.9
2756.75
1937.85
493.885
2349.86
15000
14999.9
14999.7
14999.4
14999.1
14998.5
14997.9
14997.1
14996.2
14995.3
14994.2
14993.1
14992
14990.9
14989.9
14989
14988.3
14987.7
14987.3
14987
14986.9
14987.1
14987.3
14987.7
14988.3
14988.9
14989.6
14990.4
14991.3
14992.1
14992.9
14993.7
14994.5
14995.2
14995.9
14996.5
14997.1
14997.5
14998
14998.3
14998.6
14998.9
14999.1
14999.3
14999.4
14999.5
14999.5
14999.6
14999.6
14999.6
14999.5
14999.5
14999.4
14999.3
14999.1
14998.9
14998.7
14998.4
14998
14997.6
14997.1
14996.5
14995.7
14994.9
14993.9
14992.6
14991.2
14989.5
14987.5
14985.2
14982.5
14979.4
14975.8
14971.5
14966.7
14961.1
14954.7
14947.3
14938.9
14929.3
14918.4
14906.1
14892.1
14876.4
14858.7
14838.9
14816.7
14791.9
14764.3
14733.7
14699.8
14662.4
14621.1
14575.8
14526.1
14471.8
14412.5
14348
14278.1
14202.4
14120.6
14032.6
13938.1
13836.8
13728.5
13613
13490.2
13360
13222.1
13076.6
12923.4
12762.5
12594
12417.8
12234.2
12043.3
11845.2
11640.3
11428.8
11211
10987.4
10758.3
10524.3
10285.7
10043.2
9797.23
9548.43
9297.39
9044.74
8791.12
8537.17
8283.56
8030.95
7779.98
7531.31
7285.57
7043.38
6805.34
6572.02
6343.98
6121.73
5905.74
5696.47
5494.32
5299.67
5112.83
4934.08
4763.68
4601.81
4448.62
4304.24
4168.72
4042.1
3924.37
3815.47
3715.34
3623.85
3540.87
3466.21
3399.68
3341.05
3290.09
3246.53
3210.09
3180.48
3157.4
3140.54
3129.57
3124.18
3124.02
3128.77
3138.1
3151.66
3169.13
3190.15
3214.39
3241.46
3270.97
3302.42
3335.17
3368.3
3400.31
3428.67
3448.87
3452.69
3424.92
3337.25
3136.53
2722.57
1905.56
488.233
2340.55
15000
14999.9
14999.7
14999.4
14999.1
14998.6
14997.9
14997.1
14996.2
14995.2
14994.1
14992.9
14991.7
14990.6
14989.5
14988.5
14987.7
14987
14986.5
14986.2
14986
14986.1
14986.3
14986.7
14987.3
14987.9
14988.7
14989.5
14990.4
14991.3
14992.2
14993.1
14993.9
14994.7
14995.4
14996.1
14996.7
14997.3
14997.7
14998.1
14998.5
14998.8
14999
14999.2
14999.3
14999.4
14999.5
14999.6
14999.6
14999.6
14999.5
14999.5
14999.4
14999.3
14999.1
14998.9
14998.7
14998.4
14998
14997.6
14997.1
14996.5
14995.8
14994.9
14993.9
14992.7
14991.2
14989.6
14987.6
14985.3
14982.6
14979.5
14975.8
14971.6
14966.8
14961.2
14954.8
14947.4
14939
14929.5
14918.6
14906.3
14892.4
14876.7
14859.1
14839.3
14817.1
14792.4
14764.9
14734.3
14700.5
14663.1
14621.9
14576.7
14527.1
14472.8
14413.7
14349.3
14279.5
14203.9
14122.3
14034.3
13939.9
13838.7
13730.5
13615.2
13492.5
13362.4
13224.7
13079.3
12926.2
12765.4
12596.9
12420.8
12237.3
12046.4
11848.3
11643.4
11431.9
11214.1
10990.5
10761.3
10527.2
10288.5
10045.8
9799.62
9550.59
9299.29
9046.34
8792.39
8538.08
8284.06
8031
7779.55
7530.36
7284.05
7041.27
6802.59
6568.6
6339.84
6116.84
5900.07
5689.98
5486.99
5291.46
5103.71
4924.03
4752.67
4589.82
4435.64
4290.23
4153.68
4026.01
3907.22
3797.26
3696.06
3603.5
3519.43
3443.7
3376.1
3316.41
3264.4
3219.8
3182.34
3151.72
3127.66
3109.83
3097.92
3091.61
3090.57
3094.47
3102.97
3115.75
3132.46
3152.78
3176.34
3202.79
3231.71
3262.62
3294.89
3327.59
3359.26
3387.37
3407.47
3411.43
3384.18
3297.64
3099.17
2689.54
1880.28
484.756
2363.09
15000
14999.9
14999.7
14999.5
14999.1
14998.6
14998
14997.2
14996.3
14995.2
14994.1
14992.9
14991.7
14990.5
14989.4
14988.3
14987.4
14986.6
14986
14985.6
14985.4
14985.4
14985.6
14986
14986.5
14987.2
14987.9
14988.8
14989.7
14990.6
14991.6
14992.5
14993.4
14994.3
14995
14995.8
14996.4
14997
14997.5
14998
14998.3
14998.6
14998.9
14999.1
14999.3
14999.4
14999.5
14999.5
14999.5
14999.5
14999.5
14999.5
14999.4
14999.3
14999.1
14998.9
14998.7
14998.4
14998
14997.6
14997.1
14996.5
14995.8
14994.9
14993.9
14992.7
14991.3
14989.6
14987.6
14985.3
14982.6
14979.5
14975.9
14971.7
14966.9
14961.3
14954.9
14947.6
14939.2
14929.7
14918.9
14906.6
14892.7
14877
14859.4
14839.7
14817.6
14792.9
14765.5
14735
14701.2
14663.9
14622.8
14577.6
14528.1
14474
14414.9
14350.7
14280.9
14205.4
14123.9
14036.1
13941.8
13840.8
13732.7
13617.5
13494.9
13364.9
13227.3
13082
12929.1
12768.4
12600
12424
12240.5
12049.6
11851.6
11646.7
11435.2
11217.4
10993.7
10764.5
10530.2
10291.4
10048.5
9802.18
9552.92
9301.35
9048.1
8793.81
8539.12
8284.68
8031.17
7779.22
7529.49
7282.61
7039.21
6799.87
6565.19
6335.7
6111.93
5894.36
5683.43
5479.57
5283.13
5094.45
4913.82
4741.47
4577.61
4422.39
4275.94
4138.32
4009.58
3889.69
3778.64
3676.32
3582.65
3497.48
3420.64
3351.93
3291.14
3238.04
3192.36
3153.83
3122.17
3097.08
3078.25
3065.37
3058.1
3056.14
3059.15
3066.79
3078.75
3094.67
3114.24
3137.1
3162.88
3191.19
3221.53
3253.29
3285.54
3316.82
3344.67
3364.65
3368.74
3342.07
3256.96
3061.69
2659.55
1869.64
486.795
2386.15
15000
14999.9
14999.7
14999.5
14999.1
14998.7
14998.1
14997.3
14996.4
14995.4
14994.3
14993.1
14991.9
14990.7
14989.5
14988.4
14987.4
14986.5
14985.9
14985.4
14985.1
14985
14985.2
14985.5
14986
14986.6
14987.4
14988.2
14989.2
14990.1
14991.1
14992.1
14993
14993.9
14994.7
14995.5
14996.2
14996.8
14997.3
14997.8
14998.2
14998.5
14998.8
14999
14999.2
14999.3
14999.4
14999.5
14999.5
14999.5
14999.5
14999.4
14999.4
14999.2
14999.1
14998.9
14998.7
14998.4
14998
14997.6
14997.1
14996.5
14995.8
14994.9
14993.9
14992.7
14991.3
14989.6
14987.7
14985.4
14982.7
14979.6
14976
14971.8
14967
14961.4
14955.1
14947.8
14939.4
14929.9
14919.1
14906.8
14893
14877.4
14859.8
14840.1
14818.1
14793.5
14766.1
14735.6
14702
14664.7
14623.7
14578.6
14529.2
14475.2
14416.2
14352.1
14282.4
14207.1
14125.7
14038
13943.8
13842.9
13735
13619.9
13497.5
13367.6
13230.1
13084.9
12932.1
12771.5
12603.2
12427.3
12243.8
12053
11855.1
11650.2
11438.7
11220.9
10997.1
10767.8
10533.4
10294.5
10051.4
9804.89
9555.4
9303.56
9050
8795.36
8540.29
8285.43
8031.45
7779
7528.72
7281.25
7037.22
6797.22
6561.82
6331.59
6107.03
5888.64
5676.86
5472.1
5274.74
5085.11
4903.49
4730.13
4565.24
4408.97
4261.44
4122.73
3992.88
3871.88
3759.69
3656.24
3561.43
3475.11
3397.12
3327.28
3265.36
3211.14
3164.35
3124.72
3091.98
3065.83
3045.96
3032.06
3023.81
3020.89
3022.97
3029.72
3040.82
3055.93
3074.71
3096.83
3121.92
3149.58
3179.32
3210.53
3242.3
3273.18
3300.73
3320.59
3324.82
3298.78
3215.24
3023.55
2629.64
1860.56
490.571
2435
15000
14999.9
14999.8
14999.5
14999.2
14998.8
14998.2
14997.5
14996.6
14995.7
14994.6
14993.4
14992.2
14991
14989.8
14988.7
14987.6
14986.7
14986
14985.5
14985.1
14985
14985.1
14985.3
14985.8
14986.4
14987.1
14987.9
14988.8
14989.8
14990.8
14991.8
14992.7
14993.6
14994.5
14995.3
14996
14996.6
14997.2
14997.7
14998.1
14998.5
14998.8
14999
14999.2
14999.3
14999.4
14999.5
14999.5
14999.5
14999.5
14999.4
14999.4
14999.2
14999.1
14998.9
14998.7
14998.4
14998
14997.6
14997.1
14996.5
14995.8
14995
14993.9
14992.7
14991.3
14989.7
14987.7
14985.4
14982.8
14979.7
14976.1
14971.9
14967.1
14961.6
14955.2
14947.9
14939.6
14930.1
14919.3
14907.1
14893.3
14877.7
14860.2
14840.6
14818.6
14794
14766.7
14736.3
14702.7
14665.6
14624.7
14579.7
14530.3
14476.4
14417.6
14353.5
14284
14208.8
14127.5
14040
13945.9
13845.1
13737.3
13622.4
13500.1
13370.3
13233
13088
12935.2
12774.7
12606.5
12430.7
12247.3
12056.6
11858.7
11653.8
11442.3
11224.5
11000.6
10771.3
10536.8
10297.7
10054.5
9807.76
9558.03
9305.92
9052.06
8797.07
8541.6
8286.31
8031.86
7778.89
7528.06
7279.99
7035.32
6794.64
6558.53
6327.53
6102.18
5882.95
5670.29
5464.63
5266.33