<?xml version="1.0"?>
<VTKFile type="PolyData" version="0.1" byte_order="LittleEndian">
  <PolyData>
    <Piece NumberOfPoints="50000" NumberOfVerts="50000" NumberOfLines="0" NumberOfStrips="0" NumberOfPolys="0">
      <Points>
        <DataArray type="Float32" NumberOfComponents="3" format="ascii">
0.0910723 0.0026645 0
-0.0849338 0.00131652 0
0.0878945 0.000114449 0
0.0919085 0.000241975 0
-0.073561 0.00209434 0
-0.0616041 0.00117505 0
0.0302751 -0.00505194 0
-0.0764643 0.000649696 0
0.0269137 -0.00380436 0
-0.00518328 0.00267363 0
0.0687893 -0.00212668 0
0.08797 0.00250314 0
-0.049288 0.00227312 0
-0.0343978 -0.00473695 0
-0.0927182 0.00118021 0
0.0708145 0.0034457 0
-0.0122485 0.000219462 0
0.0910247 0.00108474 0
0.0348077 0.0010211 0
-0.0849356 0.00151041 0
-0.0891853 0.00190624 0
0.0786917 0.00221618 0
-0.0877949 0.00125034 0
0.0890181 0.000719862 0
0.0565728 -0.00214951 0
0.065861 0.00360119 0
-0.0866969 -0.00100759 0
0.0913917 -3.9861e-05 0
-0.0616154 0.00594678 0
-0.0918465 0.0027073 0
-0.0686519 0.00340369 0
-0.0634133 -0.0029982 0
0.0906049 0.000910858 0
0.0909378 0.000475138 0
0.0177566 0.00185008 0
0.0925761 0.000351229 0
0.0284407 0.00103632 0
-0.0912621 0.00122744 0
-0.0847565 -0.000494042 0
-0.094385 0.000115933 0
0.0663696 0.00365436 0
0.0703381 0.00208729 0
-0.0871591 0.00012595 0
0.0900353 0.000889451 0
0.0929352 0.00101334 0
-0.0895746 0.00263254 0
0.0888035 0.00185789 0
0.0454182 -0.00264433 0
0.0874869 0.000797742 0
0.0896087 0.000765854 0
0.0374348 0.0055076 0
-0.0879895 0.000426861 0
-0.0605765 0.00281607 0
0.0885247 0.00139419 0
-0.0864882 0.00122834 0
-0.0920609 0.00126546 0
0.091099 0.000446404 0
0.0368004 0.00330835 0
0.067842 0.0024118 0
0.093978 -0.000368129 0
0.0764577 0.00178769 0
0.0921343 0.0013475 0
0.0205258 -0.00643416 0
0.0938321 0.000329892 0
-0.0290763 0.00448909 0
-0.0863165 0.00100295 0
0.0892293 0.000522726 0
0.0914494 0.000575315 0
0.0944894 0.00163379 0
0.0656038 0.000936009 0
-0.0871099 0.0014327 0
0.0892895 0.00159057 0
0.049352 0.00104554 0
0.0497167 0.00226043 0
0.0425971 0.00187136 0
-0.0886747 0.000112093 0
0.0773834 0.00351382 0
-0.0838527 0.00167856 0
0.0684805 0.00225872 0
-0.0918319 0.00106907 0
-0.0452023 -0.00674488 0
-0.0900921 0.0016847 0
0.0845068 0.00190632 0
-0.0877105 0.00083455 0
0.0938638 -0.000317799 0
-0.0876693 0.00145272 0
0.0939501 -0.000301306 0
-0.0388081 -0.0011808 0
-0.0374162 0.00582534 0
-0.0887769 -0.00092688 0
0.0885872 0.00226408 0
-0.0867835 0.00054768 0
0.0886261 0.000332065 0
-0.0589822 0.0050747 0
-0.00815768 -0.00407297 0
-0.0777035 0.00189208 0
0.0888642 0.00272921 0
-0.0892474 0.00143482 0
-0.0942289 0.00233922 0
-0.0931573 0.000482243 0
-0.0777702 -0.000970208 0
-0.0871513 -0.000585821 0
0.0944173 0.000606503 0
-0.0367464 -0.00384035 0
0.0950824 0.000632686 0
0.0774467 0.00355281 0
0.0579754 0.00229259 0
0.00504426 0.0024406 0
0.0871764 0.00174806 0
-0.0883596 -0.000361026 0
-0.0657251 0.00508648 0
-0.0894154 0.00141103 0
-0.0758545 0.00306494 0
57.2024 82.7461 0
0.0596283 0.00238523 0
-0.0880169 0.00150693 0
-0.0913391 0.00168673 0
1.45259 1.98688 0
-0.0889204 0.00105833 0
-0.00366715 -0.00113938 0
0.0914282 0.000447553 0
-0.0858641 -0.0001759 0
0.0618517 -5.93207e-06 0
-0.0815601 0.0023667 0
0.0895766 0.000598681 0
0.0871551 0.000544914 0
0.0287015 0.00600333 0
0.0917386 0.00173253 0
-0.0788098 -0.000817174 0
0.0693777 0.000539565 0
0.0925881 5.58713e-05 0
0.0917523 0.000662979 0
-0.0936649 0.000873237 0
-0.0779971 0.00161305 0
0.0941688 0.00036698 0
0.0895459 0.000537034 0
0.0861289 0.000124819 0
-0.0133765 0.00142082 0
0.0717483 -0.00239463 0
0.0699237 -0.00189818 0
0.0717196 -0.00244794 0
0.085051 0.00288308 0
0.0924905 1.18563e-05 0
-0.0203469 -0.00235441 0
-0.09096 0.00219174 0
0.0609584 -0.00422564 0
-0.0575301 0.00515605 0
-0.0896493 0.00114388 0
-0.0631807 -0.00365805 0
-0.0899798 0.00151738 0
0.0695387 0.00238586 0
0.0889742 0.0012797 0
-0.0265912 -0.00188409 0
0.0721442 -0.00154532 0
0.0716922 0.00260404 0
0.0883616 0.0016541 0
0.0602759 -0.0014093 0
-0.0882807 0.00131168 0
-0.0374217 -0.000602481 0
0.0922625 0.000684104 0
0.0616557 0.000377816 0
-0.0801851 9.80789e-06 0
-0.086731 0.00125266 0
-0.0902262 0.00126374 0
-0.022635 0.00293462 0
0.0708902 -0.000661324 0
0.080103 -0.000498566 0
0.0810016 0.00156251 0
0.0684467 0.00256405 0
-0.0364075 0.000848324 0
0.0949137 -0.000326969 0
-0.0864131 0.00138663 0
-0.019841 -0.000584891 0
0.0919857 0.00175601 0
-0.0157351 -3.78333e-05 0
-0.0691447 0.00420053 0
-0.0866532 0.00124605 0
-0.0519041 -0.00173073 0
-0.0879686 0.000155688 0
-0.0884159 -0.000806182 0
0.0880298 0.000739454 0
-0.0893392 0.00211194 0
-0.0879497 0.0018909 0
0.0910239 0.00197264 0
0.0885837 0.000551214 0
0.0681353 -0.00309712 0
0.0951164 -6.23358e-07 0
0.0939386 0.000854371 0
0.0913168 -6.13928e-05 0
0.0105424 0.007173 0
0.0928259 -5.5096e-05 0
0.0749648 -0.00128969 0
-0.0586287 -0.00333891 0
0.0833395 0.00217467 0
-0.0813626 0.00212169 0
0.088081 0.00115542 0
-0.0722606 0.00331807 0
-0.0772904 0.00188413 0
-0.0868331 0.0015565 0
0.0893103 0.00188672 0
-0.0574179 0.00491483 0
0.0936161 0.00135727 0
0.0812693 -0.000475517 0
-0.0175747 -0.000849406 0
0.0950284 -0.000349801 0
-0.0859409 -0.00113421 0
0.0124728 0.0110168 0
0.0379603 -0.000746099 0
-0.077203 0.00308909 0
-0.053994 -0.00154256 0
0.0871902 0.00089233 0
-0.0372418 -0.00391614 0
0.0819355 -7.32064e-05 0
-0.0745884 0.00315995 0
-0.0506023 -0.00278861 0
-0.0901571 0.00203483 0
-0.0889493 0.00239753 0
0.0903709 0.000698971 0
-0.0910747 0.000380541 0
-0.0100349 0.00535679 0
-0.0698056 0.00331758 0
-0.0910897 0.00149119 0
-0.084143 -0.000719482 0
0.0942429 0.000101034 0
0.0332969 0.00616977 0
-0.0867291 0.00135975 0
0.0945246 0.00100286 0
0.0910354 0.000577078 0
-0.0766396 0.00287873 0
-0.0910594 0.00052792 0
-0.0896447 -0.000204411 0
0.0887216 0.00172902 0
0.0458634 0.005948 0
-0.0131038 0.0040353 0
-0.0925662 0.00166804 0
-0.0793846 0.00201317 0
0.0691688 -0.00315615 0
-0.069593 -0.00030306 0
-0.0883068 0.00143222 0
0.0551931 8.35393e-05 0
0.0928413 0.000741207 0
-0.0813759 -0.000875333 0
-0.0895014 0.00142934 0
-0.0508789 -0.00240112 0
0.0455345 0.00225121 0
0.0809568 0.0016697 0
-0.0840856 0.00226715 0
0.0910806 0.000575639 0
0.0933799 0.00133968 0
0.0535847 0.00351848 0
0.0560139 0.0017053 0
-0.0838906 0.00182369 0
0.0877586 8.79346e-05 0
-0.0390542 -0.00137257 0
-0.0810182 0.00251381 0
0.0880381 0.0006887 0
-0.0785162 0.00246972 0
0.0774927 0.00273351 0
0.0337445 0.00590021 0
0.0490228 0.000823125 0
0.0934497 0.000959752 0
-0.083862 0.00178507 0
0.0175112 -0.00110056 0
0.00910389 -0.00236226 0
-0.0595317 0.00146519 0
-0.0884535 0.000904573 0
-0.0868821 0.00133763 0
-0.0865609 0.000345165 0
0.0902811 0.000530898 0
0.089389 0.000568996 0
0.0921336 0.000539249 0
-0.0893361 1.01391e-05 0
0.0591499 0.00141853 0
0.00517827 0.00331375 0
-0.093046 0.00180117 0
-0.0903799 0.00119338 0
0.0876554 0.000667666 0
-0.0863939 0.00135757 0
0.0866022 0.00219216 0
-0.0878595 0.000340064 0
-0.0848025 0.000651513 0
-0.0384689 -0.00435306 0
-0.0891645 0.0012254 0
0.0854563 0.000255136 0
-0.0752987 0.00309042 0
-0.0849223 -2.46393e-05 0
-0.0331241 0.00511818 0
-0.0890172 0.00139739 0
-0.0902183 0.00152775 0
0.0771475 5.03241e-05 0
-0.0311268 0.00221933 0
0.0901234 0.000546456 0
0.0920656 0.000108535 0
0.0584861 0.00381901 0
0.093223 0.00148923 0
0.0890047 0.00216243 0
0.092811 0.00168958 0
-0.0602312 0.00586998 0
-0.0835003 0.00113259 0
-0.0925845 0.000895114 0
0.0953146 0.000955201 0
-0.0118451 0.00235704 0
0.089754 0.000361851 0
0.0877998 0.00150437 0
0.0923491 0.000585732 0
0.0162492 0.00342282 0
-0.045954 0.00623903 0
0.0775938 0.00193383 0
-0.0100101 0.000800525 0
-0.043032 0.0027849 0
-0.0725076 0.00327101 0
0.0903158 0.00227401 0
-0.0640244 0.00393543 0
0.0831601 -0.000456681 0
0.0686599 -0.000319234 0
-0.0925314 0.0020765 0
0.072886 -0.00253096 0
0.0944967 -0.000400502 0
0.084444 6.97688e-05 0
0.0905705 0.0024324 0
-0.090255 0.00187542 0
-0.0190888 0.00404844 0
0.0919191 0.00120827 0
0.09168 0.000544201 0
0.0421794 0.0062016 0
-0.0862882 0.000564927 0
-0.0842814 0.00181612 0
0.0942834 0.000864388 0
-0.0859563 2.21812e-05 0
0.0913051 0.00132738 0
0.0917769 0.000213879 0
0.0438139 -0.00444118 0
0.0876155 0.00152593 0
-0.0885723 0.00142058 0
-0.0753725 0.000565513 0
-0.0503824 0.000143817 0
0.00781866 -0.000974254 0
0.0113373 -0.00565578 0
-0.0811861 0.00144253 0
0.0407655 -0.00500678 0
-0.00861954 0.00952751 0
-0.0916199 0.00203184 0
-0.0648521 0.00373525 0
-0.0893157 0.0016737 0
-0.0362287 -0.00228901 0
0.091925 0.00231333 0
-0.0628805 0.00410638 0
-0.0906365 0.00065402 0
-10.8407 44.8434 0
0.0916002 -0.00040243 0
0.0911829 0.000510608 0
-0.0731211 0.00384944 0
0.0889294 0.00143288 0
0.0841829 0.000524042 0
-103.739 -185.522 0
0.0281743 0.00396377 0
-0.0896311 0.0015048 0
-0.0739286 0.000156736 0
0.0903562 0.001541 0
0.779475 -1.60334 0
0.085428 0.00185277 0
-0.0878343 -0.000689644 0
-0.0554013 0.000767409 0
-0.0892047 -7.24385e-05 0
-0.090794 0.00217998 0
0.0897792 0.000525537 0
-0.0917982 0.00037609 0
-0.0794643 0.0027434 0
0.0701973 0.00352723 0
-0.0865761 0.000704819 0
-0.0717727 0.00385371 0
-0.0799126 0.00253074 0
0.0905509 0.00168794 0
0.0817205 -0.000809026 0
-0.0526988 0.00493082 0
0.0933633 0.000298386 0
-0.0897584 -0.000596231 0
-0.082807 -0.000100115 0
-0.0906546 0.000959849 0
0.00843485 -0.00603256 0
-0.0873624 -0.0005298 0
0.0898021 0.00172504 0
-0.0886404 0.00151718 0
-0.0884647 0.00112273 0
-0.0210447 0.00406467 0
0.0584646 0.00377399 0
-0.0279619 0.00873453 0
0.0195947 0.00528479 0
-0.0896787 0.00155678 0
-0.0154885 0.00152914 0
-0.0899574 0.000458979 0
-0.0903006 0.00190925 0
0.0875764 -0.000528225 0
0.0767401 0.00283351 0
-0.0841322 0.0021329 0
0.0816952 0.00187073 0
0.0806811 0.00105104 0
-0.0860343 0.00137895 0
-0.0468942 -0.000852695 0
0.0636782 -0.00307732 0
-0.0863946 0.0008621 0
0.0772473 -0.00123356 0
0.0358149 -0.000327006 0
-0.0883127 0.000476256 0
0.0839743 0.000616438 0
0.0883137 0.000236931 0
0.0900243 -0.000277001 0
[...]
      <PointData Scalars="T">
        <DataArray type="Float32" Name="T" format="ascii" NumberOfComponents="1">
311.128
324.431
302.088
301.588
344.106
330.693
313.978
334.978
313.978
344.106
313.978
311.128
344.106
341.316
330.814
311.128
343.796
300.566
300.435
324.486
336.755
311.128
326.792
300.572
313.978
311.128
341.316
313.978
344.106
344.106
344.106
341.316
300.425
300.553
302.04
300.731
300.536
328.29
341.316
343.726
311.128
311.128
343.566
300.43
300.425
344.106
302.04
313.978
300.508
300.578
311.128
338.66
344.106
300.707
328.29
326.619
300.584
311.128
311.128
313.978
301.731
300.659
313.978
300.792
344.106
335.063
300.51
300.492
301.284
300.426
322.664
301.093
300.593
311.128
302.219
343.726
311.128
328.91
311.128
332.792
341.316
329.348
302.391
330.879
313.978
322.838
313.978
341.316
344.106
341.316
311.128
336.014
300.771
344.106
341.316
335.89
311.128
322.664
344.106
338.005
341.316
341.316
300.488
341.316
300.492
311.128
311.128
311.128
301.663
341.316
344.106
322.71
344.106
311.128
311.128
324.192
329.348
311.128
332.888
341.316
300.584
341.316
313.978
344.106
300.489
300.501
311.128
301.649
341.316
300.505
302.014
300.51
331.828
327.106
300.712
300.505
302.113
322.67
313.978
313.978
313.978
311.128
302.188
341.316
344.106
313.978
344.106
330.878
341.316
324.486
311.128
300.566
341.316
313.978
311.128
301.38
313.978
324.431
341.316
300.529
300.691
341.316
326.792
326.619
344.106
313.978
313.978
301.01
311.128
331.64
313.978
323.011
341.316
301.683
341.316
344.106
327.004
341.316
343.659
341.316
300.595
344.106
335.89
311.128
300.497
313.978
313.978
300.437
313.978
311.128
313.978
313.978
341.316
311.128
344.106
300.524
344.106
334.841
325.683
302.291
344.106
300.672
313.978
341.316
313.978
341.316
311.128
313.978
344.106
341.316
300.427
341.316
313.978
344.106
341.316
344.106
344.106
300.541
339.12
344.106
344.106
323.946
341.316
302.044
311.128
323.22
300.42
300.492
344.106
336.797
341.316
301.617
311.128
344.106
328.384
344.106
313.978
341.316
322.664
302.01
300.597
341.316
322.67
341.316
311.128
301.421
344.106
300.492
300.648
311.128
301.581
331.903
302.01
341.316
344.106
300.529
344.106
311.128
311.128
300.454
300.427
331.734
313.978
313.978
323.008
333.767
323.693
339.703
300.505
300.494
300.505
343.846
300.722
311.128
331.542
330.399
300.51
323.22
311.128
339.703
335.23
341.316
328.29
301.256
344.106
341.316
344.106
322.868
324.75
302.014
344.106
300.501
302.044
311.128
300.799
311.128
301.504
344.106
330.949
334.445
300.427
344.106
300.712
300.842
300.491
311.128
344.106
311.128
330.966
344.106
344.106
311.128
344.106
313.978
313.978
344.106
313.978
313.978
302.005
311.128
334.162
344.106
300.533
300.501
311.128
335.268
331.668
300.434
343.575
300.635
302.659
313.978
300.897
322.67
335.268
343.384
313.978
313.978
322.715
313.978
344.106
344.106
344.106
328.91
341.316
311.128
344.106
335.23
344.106
313.978
300.517
344.106
300.738
300.51
341.316
311.128
324.192
343.659
300.947
313.978
302.04
341.316
332.537
341.316
344.106
300.51
339.153
344.106
311.128
334.734
344.106
344.106
301.504
313.978
344.106
300.895
341.316
341.316
338.8
313.978
341.316
301.617
324.486
331.321
344.106
311.128
344.106
311.128
325.683
324.75
338.808
336.755
313.978
311.128
344.106
302.219
300.608
323.039
341.316
313.978
332.818
313.978
313.978
338.524
300.488
301.963
313.978
300.61
300.559
311.128
325.05
311.128
341.316
311.128
325.05
341.316
344.106
313.978
325.83
300.51
344.106
311.128
322.715
300.531
300.488
311.128
313.978
322.67
326.792
300.584
344.106
311.128
326.619
301.38
336.596
341.316
330.076
332.289
300.768
300.553
344.106
302.007
331.273
336.797
341.316
331.818
341.316
311.128
313.978
341.244
300.609
341.316
339.296
302.123
313.978
341.853
327.106
330.651
341.316
300.426
341.316
300.445
344.106
341.316
300.489
311.128
341.316
341.316
344.106
344.106
311.128
330.29
313.978
300.505
301.284
344.106
336.755
325.384
300.554
311.128
334.056
341.853
341.316
326.619
300.582
301.892
300.489
300.423
344.106
311.128
311.128
300.425
323.693
311.128
313.978
335.268
300.691
323.22
327.106
344.106
341.316
336.797
341.316
341.316
341.316
313.978
313.978
313.978
311.128
302.044
311.128
311.128
341.316
311.128
325.854
302.345
311.128
344.106
301.683
331.715
332.792
344.106
334.056
311.128
313.978
311.128
300.534
300.672
313.978
344.106
311.128
301.504
333.546
301.581
330.577
322.715
341.316
313.978
300.61
331.876
344.106
341.316
338.434
341.316
311.128
311.128
300.537
311.128
341.316
327.296
301.716
328.384
300.426
311.128
343.534
322.664
313.978
344.106
300.768
311.128
341.316
311.128
341.316
300.562
336.596
344.106
300.6
313.978
341.316
342.593
331.828
324.431
344.106
311.128
313.978
300.544
300.428
311.128
341.316
333.546
335.044
341.316
323.008
300.897
313.978
344.106
311.128
339.131
300.425
301.699
300.454
327.004
311.128
341.316
335.266
311.128
313.978
341.316
311.128
323.008
313.978
302.801
301.987
300.492
341.316
343.725
331.903
333.767
311.128
341.316
313.978
338.351
341.316
311.128
300.51
343.384
341.853
344.106
344.106
300.622
313.978
344.106
335.23
341.316
311.128
313.978
322.868
344.106
300.94
302.044
311.128
311.128
327.004
341.316
343.688
341.316
341.316
301.538
344.106
311.128
300.672
341.316
344.106
300.51
313.978
341.316
325.83
313.978
341.316
341.316
323.429
300.691
341.316
329.706
311.128
344.106
326.37
313.978
311.128
323.039
311.128
302.005
330.878
311.128
300.492
325.039
344.106
313.978
300.488
300.517
311.128
301.093
335.402
335.268
344.106
332.289
311.128
323.357
341.316
300.425
300.842
328.91
329.095
332.289
300.51
301.789
311.128
311.128
334.162
300.488
302.113
333.128
326.654
300.672
300.517
311.128
311.128
300.609
344.106
311.128
300.722
302.538
322.71
311.128
344.106
313.978
300.768
313.978
301.716
313.978
344.106
300.533
332.953
301.138
323.11
344.106
344.106
313.978
341.316
311.128
322.67
300.503
311.128
341.316
313.978
332.204
339.153
335.313
329.095
344.106
331.668
300.497
302.538
313.978
300.503
313.978
334.056
311.128
322.868
335.044
300.94
302.044
324.133
300.426
327.106
311.128
331.903
344.106
344.106
341.316
339.703
300.426
344.106
311.128
344.106
341.316
331.542
339.703
341.316
300.541
311.128
302.659
344.106
341.316
344.106
330.573
341.316
344.106
343.566
311.128
323.039
341.316
313.978
301.588
300.492
329.095
330.859
344.139
301.33
339.273
300.566
325.384
341.316
339.362
311.128
300.503
311.128
300.524
300.622
344.106
334.841
300.895
344.106
311.128
330.814
301.421
326.792
341.316
300.728
322.838
300.532
331.734
327.723
313.978
300.582
339.449
311.128
313.978
300.553
311.128
344.106
341.316
335.402
311.128
330.859
300.553
311.128
300.895
313.978
335.419
326.654
300.524
344.106
344.106
313.978
300.503
300.799
300.534
331.668
341.316
311.128
330.076
300.566
300.983
322.868
344.106
300.692
331.828
313.978
300.494
323.008
322.715
302.659
300.425
344.106
341.316
341.316
311.128
300.527
331.273
344.106
326.606
332.537
1128.77
300.712
344.106
300.574
330.693
300.64
300.503
330.879
300.562
329.095
301.504
300.517
344.106
341.316
300.692
302.123
311.128
311.128
311.128
311.128
322.715
311.128
302.021
335.138
313.978
311.128
327.962
300.572
313.978
311.128
331.542
329.348
341.316
313.978
341.316
300.526
341.316
327.004
344.106
311.128
341.316
334.957
341.316
313.978
336.596
327.106
313.978
300.609
341.316
341.316
313.978
344.106
302.705
313.978
338.434
311.128
341.316
300.537
313.978
311.128
313.978
311.128
311.128
344.106
300.566
302.01
300.544
344.106
300.505
341.316
344.106
341.316
302.044
301.789
324.431
341.316
344.106
313.978
327.518
344.106
300.597
300.494
311.128
300.897
323.357
329.095
313.978
344.106
311.128
344.106
341.316
300.524
343.575
302.397
344.106
344.246
344.106
329.348
344.106
331.273
341.316
344.106
344.106
311.128
332.953
313.978
313.978
313.978
302.791
301.731
344.106
300.517
323.357
311.128
322.67
300.947
300.54
343.796
311.128
344.106
300.852
311.128
313.978
339.131
300.534
344.106
300.426
341.316
341.316
311.128
341.316
324.75
331.818
341.316
313.978
311.128
311.128
311.128
341.316
313.978
337.56
313.978
300.454
311.128
311.128
300.7
313.978
300.517
341.316
311.128
300.728
339.703
344.106
302.113
326.654
300.42
344.106
341.316
323.685
330.29
341.316
323.011
300.635
341.316
311.128
329.706
313.978
344.106
311.128
344.106
344.106
300.983
311.128
344.106
313.978
311.128
300.578
300.427
341.316
344.106
334.978
335.328
313.978
331.668
300.485
332.289
344.106
300.792
300.817
328.384
311.128
313.978
300.578
313.978
324.192
300.595
302.342
344.106
344.106
344.106
344.158
344.106
313.978
322.868
313.978
341.316
300.529
313.978
311.128
322.868
341.316
341.316
331.548
313.978
311.128
341.316
300.75
300.608
341.316
341.316
300.691
323.946
300.54
313.978
301.892
341.316
344.106
344.106
327.723
302.04
335.266
300.768
330.537
344.106
300.492
302.04
311.128
313.978
300.869
335.23
333.358
341.316
323.22
300.492
300.648
301.892
311.128
311.128
311.128
341.316
326.334
332.793
344.106
335.629
323.039
323.429
300.467
313.978
313.978
300.488
300.622
323.22
313.978
325.83
300.427
341
331.903
311.128
327.43
333.128
300.505
336.596
313.978
302.113
313.978
300.691
311.128
301.038
302.082
311.128
341.042
300.536
330.878
301.987
311.128
300.578
338.66
313.978
339.449
311.128
311.128
311.128
311.128
344.106
313.978
344.106
311.128
300.597
313.978
334.24
334.24
331.828
313.978
313.978
341.316
311.128
326.606
300.672
300.517
341.316
331.903
339.208
313.978
301.892
325.683
300.505
344.106
300.672
327.296
322.71
333.767
344.106
313.978
302.014
340.831
332.793
344.106
344.106
313.978
341.316
311.128
331.715
311.128
300.7
344.106
325.05
302.04
344.106
300.503
313.978
313.978
344.106
300.43
313.978
341.316
344.106
313.978
327.518
300.492
344.106
322.715
300.497
341.316
341.316
300.572
300.572
300.947
301.083
311.128
338.808
300.58
311.128
344.106
344.106
313.978
323.693
311.128
300.435
330.966
324.431
311.128
335.089
331.64
300.608
313.978
334.957
330.814
300.562
325.83
332.953
340.851
338.005
344.106
302.113
313.978
344.106
325.039
313.978
341.316
302.801
311.128
311.128
344.106
329.348
302.113
331.64
311.128
326.914
311.128
302.01
330.537
300.61
300.691
341.316
323.11
341.316
343.413
322.784
336.755
325.039
327.723
311.128
300.541
313.978
326.914
313.978
344.106
324.133
300.517
323.011
322.664
300.897
323.693
339.449
302.277
341.316
341
311.128
325.83
311.128
300.555
300.622
313.978
336.755
300.7
300.566
323.357
322.715
311.128
344.106
344.106
300.445
300.553
300.488
341.316
300.501
344.106
300.524
302.014
333.121
323.011
323.22
300.987
300.541
344.106
344.106
327.296
341.316
300.546
341.316
313.978
341.316
341.316
300.597
311.128
302.014
341.316
311.128
313.978
311.128
331.003
300.553
333.767
335.23
344.106
325.05
334.056
341.853
343.688
311.128
300.757
341.316
327.518
344.106
313.978
344.106
344.106
322.67
341.316
341.316
313.978
313.978
301.038
322.71
311.128
311.128
300.497
343.659
313.978
300.525
311.128
300.426
311.128
344.106
331.828
334.243
344.106
330.399
300.517
341.316
341.316
311.128
327.723
341.316
344.106
330.651
327.43
322.664
335.349
313.978
341.316
341.442
344.106
341.316
324.486
313.978
341.316
344.106
313.978
300.817
313.978
341.316
341.316
344.106
311.128
323.039
338.66
300.525
344.106
322.715
344.106
301.731
344.106
311.128
311.128
313.978
340.831
313.978
300.532
341.316
335.328
302.197
311.128
341.316
344.106
344.106
300.731
331.346
337.56
344.106
301.789
311.128
313.978
311.128
341.316
344.106
323.011
313.978
311.128
344.106
311.128
301.834
334.978
341.316
341
311.128
311.128
302.219
326.792
311.128
339.208
311.128
344.106
324.75
330.949
300.722
300.51
313.978
301.588
339.296
302.007
313.978
330.29
324.133
311.128
301.38
300.559
344.106
313.978
323.011
300.64
300.983
313.978
300.593
335.402
323.357
335.23
301.987
302.188
313.978
300.489
344.106
311.128
322.715
300.555
300.585
311.128
341.316
300.485
324.431
311.128
311.128
302.021
335.419
313.978
313.978
313.978
300.691
301.138
332.888
311.128
302.86
344.106
341.316
335.313
330.577
344.106
344.106
330.29
344.106
300.852
300.497
341.316
311.128
344.106
330.814
327.004
313.978
341.316
341.316
300.692
302.345
302.342
311.128
311.128
331.321
300.659
301.617
302.082
302.291
323.685
300.432
332.888
341.316
341.316
313.978
341.316
344.106
344.106
344.106
344.106
344.106
332.581
344.106
300.648
300.821
300.691
325.05
313.978
326.619
300.672
311.128
327.962
300.593
300.597
311.128
301.284
313.978
331.003
313.978
300.426
344.106
311.128
330.537
311.128
344.106
313.978
300.541
344.106
344.106
341.316
344.106
341.316
333.698
313.978
313.978
313.978
341.316
311.128
344.106
300.492
339.296
311.128
323.22
344.106
341.316
323.357
300.585
313.978
340.851
313.978
301.062
343.725
344.106
300.597
301.617
326.334
301.184
301.538
313.978
300.51
313.978
341.316
344.106
341.316
341.316
311.128
313.978
311.128
300.566
300.817
344.106
335.149
334.978
300.622
300.426
300.488
313.978
327.962
313.978
311.128
300.799
302.219
300.572
311.128
333.698
326.334
344.106
311.128
325.05
344.106
300.497
300.427
300.585
300.42
331.668
311.128
326.334
301.617
311.128
344.106
313.978
341.316
341.316
341.316
300.492
341.316
341.316
330.693
341.316
336.014
322.664
341.316
340.348
331.003
313.978
344.106
331.548
311.128
301.834
313.978
300.501
311.128
324.431
344.106
311.128
341.316
341.316
311.128
327.004
344.158
300.533
311.128
300.534
344.106
324.75
313.978
344.106
344.106
301.083
337.191
300.435
300.536
313.978
300.497
344.106
326.075
344.106
301.588
325.05
344.106
344.106
331.869
343.455
332.289
311.128
341.316
344.106
324.133
311.128
332.289
300.574
344.106
331.64
311.128
323.11
341.316
300.544
300.492
338.005
334.938
333.128
300.554
330.879
323.22
332.818
341.316
344.106
341.316
341.316
301.33
301.256
341.316
344.106
313.978
300.757
313.978
341.316
301.963
313.978
300.919
301.01
344.106
341.316
344.106
325.05
300.537
329.095
311.128
327.004
341.316
341.316
313.978
300.42
344.135
344.106
300.51
330.966
301.38
313.978
311.128
302.005
313.978
311.128
328.29
343.575
339.131
344.106
302.088
300.517
341.244
300.597
334.056
323.357
344.106
341.316
330.522
300.684
300.61
324.431
341.316
300.58
311.128
323.685
313.978
324.486
300.492
313.978
300.491
344.106
311.128
313.978
300.622
301.683
338.524
300.421
341.316
341.316
300.672
300.489
339.131
330.399
311.128
300.895
313.978
343.534
341.316
323.039
300.659
300.716
341.316
311.128
301.588
334.24
313.978
311.128
344.106
344.135
335.313
327.962
344.106
332.232
344.106
344.106
300.648
341.316
300.426
344.135
340.348
301.834
330.949
344.106
327.296
341.316
313.978
331.668
341.316
300.58
344.106
334.287
322.71
311.128
300.492
300.757
300.584
341.316
341.316
323.11
335.268
328.29
344.106
341.316
323.11
327.004
313.978
301.731
311.128
300.525
300.425
341.316
335.044
311.128
311.128
341.244
341.316
324.133
313.978
330.949
344.106
344.106
300.94
327.296
313.978
311.128
300.426
313.978
322.67
311.128
336.755
344.106
341.316
311.128
344.106
311.128
300.553
300.536
300.541
344.106
341.316
300.467
300.554
300.553
311.128
311.128
300.517
341.316
300.553
313.978
326.654
335.089
322.784
313.978
300.489
313.978
327.43
331.321
344.106
311.128
325.384
302.219
332.537
300.527
313.978
313.978
300.488
344.106
301.33
341.316
300.524
300.529
311.128
344.106
341.316
341.316
325.683
341.225
341.316
300.536
326.914
334.978
302.088
313.978
300.58
322.664
331.542
341.316
341.316
311.128
344.106
335.268
341.316
300.748
344.106
336.596
300.501
323.011
311.128
341.316
300.672
326.792
341.316
311.128
344.106
313.978
338.005
326.334
313.978
311.128
341.316
323.22
344.106
300.505
344.106
341.316
300.497
335.23
301.062
301.987
334.243
311.128
300.817
313.978
313.978
300.527
338.434
313.978
311.128
331.828
311.128
344.106
341.316
341.316
333.698
341.316
300.61
338.808
311.128
311.128
311.128
313.978
311.128
300.895
313.978
301.834
341.316
300.635
311.128
341.316
313.978
313.978
300.692
300.427
341.316
300.64
300.526
341.316
311.128
343.413
341.316
302.044
322.67
344.106
300.61
344.106
300.609
300.525
311.128
300.491
300.712
313.978
313.978
300.517
300.426
323.008
341.316
335.149
300.722
300.485
344.106
313.978
300.562
335.044
302.01
311.128
313.978
300.553
313.978
323.429
301.538
300.517
331.715
313.978
341.316
311.128
300.491
300.983
344.106
341.316
311.128
323.946
344.106
313.978
300.64
313.978
344.106
311.128
300.536
333.121
324.133
313.978
313.978
301.892
341.316
343.726
341.316
300.501
301.755
313.978
335.268
329.348
313.978
300.467
311.128
301.731
313.978
331.715
311.128
341.316
311.128
330.859
329.348
300.609
302.219
332.793
330.577
311.128
341.316
332.834
332.888
333.128
331.903
323.693
341.316
302.345
313.978
335.494
300.659
335.138
311.128
302.791
341.316
300.494
313.978
344.106
313.978
333.767
331.273
331.668
323.008
301.789
311.128
313.978
341.316
313.978
341.316
301.083
302.345
326.792
341
322.71
300.445
300.525
311.128
300.578
341.316
302.659
329.794
300.517
344.106
300.491
322.71
344.106
311.128
313.978
341.316
300.554
344.106
300.716
344.106
341.316
341.316
341.316
313.978
344.106
341.316
333.767
341.316
341.316
302.345
344.106
313.978
302.01
311.128
302.021
311.128
313.978
326.075
341.316
331.64
311.128
311.128
323.693
301.083
300.554
300.494
301.588
344.106
344.106
311.128
311.128
313.978
300.51
332.818
300.435
341.316
327.004
331.869
302.791
344.106
300.536
341.853
300.817
326.654
341.316
301.663
328.91
311.128
313.978
311.128
335.266
335.138
300.525
302.705
313.978
313.978
311.128
335.419
311.128
300.559
344.106
300.488
311.128
313.978
338.351
311.128
311.128
339.131
331.321
333.986
300.508
313.978
327.43
344.106
334.243
341.225
300.51
313.978
344.106
341.316
300.492
341.316
344.106
344.106
301.963
311.128
341.316
332.818
341.316
313.978
341.316
341.316
300.659
301.755
311.128
301.538
331.542
341.316
341.316
341.316
311.128
313.978
301.538
300.492
327.723
322.715
344.106
323.008
341.316
323.039
329.095
300.445
300.593
300.852
313.978
341.316
341.316
326.37
344.106
344.106
313.978
331.828
311.128
311.128
300.75
341.316
341.316
300.544
311.128
300.61
338.351
311.128
323.11
325.683
300.503
300.488
300.94
302.005
311.128
311.128
311.128
300.983
313.978
313.978
329.706
300.817
330.859
311.128
344.106
331.346
331.321
300.657
300.501
336.596
311.128
328.384
340.348
323.22
341.316
313.978
344.106
331.003
300.553
300.428
338.808
331.869
344.106
333.095
313.978
302.088
300.987
335.419
300.42
300.454
313.978
338.8
334.978
300.488
300.546
311.128
300.648
300.489
311.128
343.659
300.501
300.421
300.648
344.106
344.106
323.011
327.723
344.106
313.978
335.215
333.358
344.106
344.106
331.818
300.54
300.536
313.978
327.106
300.505
313.978
313.978
313.978
301.683
328.384
322.67
341.316
302.044
329.095
301.588
341.316
313.978
332.537
333.767
344.106
311.128
341.316
341.316
311.128
341.316
300.525
344.106
300.559
311.128
311.128
335.266
301.038
323.429
341.316
313.978
344.106
302.188
313.978
311.128
311.128
311.128
344.106
301.834
332.204
341.316
300.426
341.316
341.042
332.204
313.978
344.106
330.693
344.106
300.497
341.316
323.008
311.128
302.659
313.978
341.316
324.133
300.42
324.431
344.106
311.128
341.316
325.683
341.316
344.106
339.362
344.106
323.11
300.527
300.799
322.71
341.316
313.978
300.792
341.316
344.106
311.128
300.508
311.128
326.914
344.106
313.978
341.316
323.008
341.442
300.425
313.978
313.978
300.537
311.128
300.692
311.128
313.978
344.106
335.139
332.888
330.651
341.316
344.106
311.128
330.522
301.617
300.467
327.296
300.731
311.128
341.316
341.316
300.527
344.106
344.106
311.128
322.71
330.814
344.106
344.106
341.316
344.106
341.316
344.106
344.106
311.128
341.316
341.316
344.106
341.316
311.128
300.525
301.834
311.128
344.106
341.316
313.978
344.106
344.106
335.494
300.505
313.978
344.106
339.153
311.128
313.978
341.316
344.106
341.316
341.316
344.106
313.978
344.106
341.442
311.128
300.659
344.106
341.316
300.817
300.852
323.039
341.316
323.693
344.106
335.149
313.978
311.128
311.128
311.128
311.128
344.106
313.978
302.123
300.757
330.859
341.316
323.011
343.534
311.128
313.978
300.489
300.505
344.106
344.106
344.106
300.852
344.106
300.426
341.042
302.021
344.106
300.947
300.51
324.192
336.596
330.814
313.978
344.106
344.106
341.316