<?xml version="1.0"?>
<VTKFile type="ImageData" version="0.1" byte_order="LittleEndian">
  <ImageData Origin="0 0 0" Spacing="1e-05 1e-05 1e-05" WholeExtent="0 191 0 191 0 0">
    <Piece Extent="0 191 0 191 0 0">
      <CellData Scalars="T">
        <DataArray type="Float32" Name="T" format="ascii" NumberOfComponents="1">
644.72
15000
15000
15000
15000
15000
15000
15000
15000
15000
15000
15000
15000
15000
15000
15000
15000
15000
15000
15000
15000
15000
15000
15000
15000
15000
15000
15000
15000
15000
15000
15000
15000
15000
15000
15000
15000
14999.9
14999.9
14999.9
14999.9
14999.8
14999.8
14999.7
14999.7
14999.6
14999.5
14999.3
14999.2
14999
14998.7
14998.4
14998.1
14997.6
14997.1
14996.5
14995.7
14994.8
14993.7
14992.4
14990.8
14989
14986.8
14984.3
14981.3
14977.8
14973.7
14969
14963.5
14957.2
14949.8
14941.4
14931.8
14920.7
14908.1
14893.8
14877.6
14859.3
14838.7
14815.5
14789.4
14760.4
14728
14691.9
14652
14607.9
14559.3
14505.8
14447.2
14383.2
14313.4
14237.5
14155.2
14066.2
13970.3
13867.1
13756.5
13638.2
13512.1
13377.9
13235.6
13085
12926.2
12759.1
12583.8
12400.4
12209
12009.8
11803
11589
11368.1
11140.7
10907.3
10668.3
10424.3
10175.8
9923.55
9668.08
9410.12
9150.35
8889.49
8628.29
8367.47
8107.78
7849.96
7594.74
7342.83
7094.92
6851.69
6613.78
6381.8
6156.31
5937.84
5726.89
5523.88
5329.21
5143.21
4966.19
4798.36
4639.94
4491.04
4351.76
4222.14
4102.18
3991.81
3890.96
3799.49
3717.23
3643.99
3579.53
3523.59
3475.91
3436.16
3404.04
3379.2
3361.3
3349.99
3344.88
3345.63
3351.84
3363.15
3379.18
3399.56
3423.92
3451.9
3483.14
3517.29
3554
3592.95
3633.79
3676.22
3719.93
3764.61
3809.98
3855.75
3901.64
3947.36
3992.61
4037.04
4080.22
4121.53
4159.98
4193.89
4220.23
4233.39
4222.81
4168.36
4031.28
3735.8
3129.51
1888.05
331.917
2342.14
15000
15000
15000
15000
15000
15000
15000
15000
15000
15000
15000
15000
15000
15000
15000
15000
15000
15000
15000
15000
15000
15000
15000
15000
15000
15000
15000
15000
15000
15000
15000
15000
15000
15000
15000
15000
14999.9
14999.9
14999.9
14999.9
14999.8
14999.8
14999.7
14999.7
14999.6
14999.5
14999.3
14999.2
14999
14998.7
14998.4
14998.1
14997.6
14997.1
14996.5
14995.7
14994.8
14993.7
14992.4
14990.8
14989
14986.8
14984.3
14981.3
14977.8
14973.7
14969
14963.5
14957.2
14949.8
14941.4
14931.8
14920.7
14908.2
14893.9
14877.7
14859.3
14838.7
14815.5
14789.5
14760.4
14728
14692
14652.1
14608
14559.3
14505.9
14447.3
14383.3
14313.5
14237.6
14155.3
14066.3
13970.4
13867.3
13756.7
13638.4
13512.2
13378.1
13235.8
13085.2
12926.4
12759.3
12584
12400.6
12209.2
12010
11803.3
11589.3
11368.4
11141
10907.5
10668.5
10424.5
10176
9923.72
9668.24
9410.25
9150.46
8889.57
8628.34
8367.48
8107.76
7849.89
7594.63
7342.66
7094.71
6851.42
6613.45
6381.4
6155.85
5937.31
5726.29
5523.2
5328.45
5142.38
4965.27
4797.36
4638.85
4489.87
4350.5
4220.79
4100.73
3990.28
3889.34
3797.77
3715.42
3642.09
3577.54
3521.52
3473.74
3433.91
3401.7
3376.78
3358.8
3347.4
3342.22
3342.89
3349.03
3360.27
3376.24
3396.56
3420.86
3448.78
3479.97
3514.07
3550.74
3589.65
3630.46
3672.86
3716.54
3761.2
3806.55
3852.3
3898.18
3943.89
3989.14
4033.58
4076.76
4118.09
4156.56
4190.52
4216.96
4230.35
4220.33
4167.41
4034.83
3753.99
3200.11
2164.67
489.66
2352.49
15000
15000
15000
15000
15000
15000
15000
15000
15000
15000
15000
15000
15000
15000
15000
15000
15000
15000
15000
15000
15000
15000
15000
15000
15000
15000
15000
15000
15000
15000
15000
15000
15000
15000
15000
15000
14999.9
14999.9
14999.9
14999.9
14999.8
14999.8
14999.7
14999.7
14999.6
14999.5
14999.3
14999.2
14999
14998.7
14998.4
14998.1
14997.6
14997.1
14996.5
14995.7
14994.8
14993.7
14992.4
14990.8
14989
14986.8
14984.3
14981.3
14977.8
14973.8
14969
14963.5
14957.2
14949.9
14941.4
14931.8
14920.8
14908.2
14893.9
14877.7
14859.4
14838.7
14815.5
14789.5
14760.5
14728.1
14692.1
14652.2
14608.1
14559.5
14506
14447.5
14383.5
14313.7
14237.8
14155.5
14066.6
13970.7
13867.5
13757
13638.7
13512.6
13378.4
13236.1
13085.6
12926.8
12759.8
12584.5
12401.1
12209.7
12010.5
11803.7
11589.7
11368.8
11141.4
10908
10669
10424.9
10176.4
9924.07
9668.55
9410.52
9150.67
8889.74
8628.44
8367.51
8107.71
7849.76
7594.4
7342.34
7094.28
6850.88
6612.79
6380.62
6154.93
5936.26
5725.09
5521.85
5326.95
5140.72
4963.45
4795.37
4636.69
4487.53
4347.99
4218.1
4097.86
3987.22
3886.1
3794.35
3711.82
3638.3
3573.57
3517.37
3469.42
3429.41
3397.03
3371.95
3353.8
3342.25
3336.92
3337.44
3343.43
3354.54
3370.37
3390.57
3414.75
3442.57
3473.66
3507.66
3544.25
3583.07
3623.81
3666.15
3709.78
3754.39
3799.71
3845.43
3891.28
3936.98
3982.22
4026.66
4069.87
4111.21
4149.74
4183.78
4210.4
4224.14
4214.92
4163.88
4035.84
3765.74
3234.94
2231.56
490.437
2351.71
15000
15000
15000
15000
15000
15000
15000
15000
15000
14999.9
14999.9
14999.9
14999.9
14999.9
14999.9
14999.9
14999.9
14999.9
14999.9
15000
15000
15000
15000
15000
15000
15000
15000
15000
15000
15000
15000
15000
15000
15000
15000
15000
14999.9
14999.9
14999.9
14999.9
14999.8
14999.8
14999.7
14999.7
14999.6
14999.5
14999.3
14999.2
14999
14998.7
14998.4
14998.1
14997.6
14997.1
14996.5
14995.7
14994.8
14993.7
14992.4
14990.8
14989
14986.9
14984.3
14981.3
14977.8
14973.8
14969
14963.6
14957.2
14949.9
14941.5
14931.8
14920.8
14908.2
14894
14877.8
14859.5
14838.8
14815.6
14789.7
14760.6
14728.2
14692.2
14652.4
14608.3
14559.7
14506.3
14447.7
14383.7
14313.9
14238.1
14155.9
14066.9
13971.1
13868
13757.4
13639.2
13513.1
13379
13236.7
13086.2
12927.5
12760.4
12585.1
12401.7
12210.4
12011.2
11804.4
11590.4
11369.5
11142.1
10908.6
10669.6
10425.5
10177
9924.6
9669.03
9410.93
9151.01
8889.98
8628.59
8367.56
8107.64
7849.57
7594.07
7341.87
7093.65
6850.08
6611.82
6379.46
6153.57
5934.69
5723.31
5519.85
5324.72
5138.25
4960.73
4792.41
4633.47
4484.05
4344.24
4214.09
4093.58
3982.67
3881.27
3789.25
3706.45
3632.66
3567.66
3511.19
3462.98
3422.71
3390.08
3364.74
3346.35
3334.56
3329
3329.3
3335.08
3345.98
3361.62
3381.63
3405.64
3433.3
3464.23
3498.1
3534.55
3573.26
3613.89
3656.14
3699.68
3744.23
3789.48
3835.16
3880.98
3926.66
3971.89
4016.34
4059.56
4100.94
4139.53
4173.69
4200.5
4214.63
4206.18
4156.71
4031.81
3767.47
3244.74
2240.95
480.418
2323.99
15000
15000
15000
15000
15000
15000
14999.9
14999.9
14999.9
14999.9
14999.9
14999.9
14999.9
14999.9
14999.9
14999.9
14999.9
14999.9
14999.9
14999.9
14999.9
14999.9
14999.9
15000
15000
15000
15000
15000
15000
15000
15000
15000
15000
15000
15000
15000
14999.9
14999.9
14999.9
14999.9
14999.8
14999.8
14999.7
14999.7
14999.6
14999.5
14999.3
14999.2
14999
14998.7
14998.4
14998.1
14997.6
14997.1
14996.5
14995.7
14994.8
14993.7
14992.4
14990.9
14989
14986.9
14984.3
14981.3
14977.9
14973.8
14969.1
14963.6
14957.2
14949.9
14941.5
14931.9
14920.9
14908.3
14894
14877.9
14859.6
14838.9
14815.8
14789.8
14760.8
14728.4
14692.4
14652.6
14608.5
14560
14506.6
14448.1
14384.1
14314.3
14238.5
14156.3
14067.4
13971.6
13868.5
13758
13639.8
13513.8
13379.7
13237.5
13087
12928.3
12761.3
12586
12402.6
12211.3
12012.1
11805.4
11591.4
11370.5
11143
10909.5
10670.5
10426.3
10177.8
9925.31
9669.66
9411.47
9151.46
8890.32
8628.8
8367.63
8107.56
7849.32
7593.65
7341.25
7092.82
6849.04
6610.53
6377.93
6151.78
5932.63
5720.96
5517.21
5321.77
5134.99
4957.15
4788.5
4629.22
4479.46
4339.3
4208.79
4087.92
3976.66
3874.89
3782.51
3699.35
3625.2
3559.84
3503.02
3454.45
3413.84
3380.87
3355.21
3336.5
3324.39
3318.52
3318.53
3324.03
3334.66
3350.04
3369.8
3393.58
3421.01
3451.74
3485.42
3521.7
3560.25
3600.74
3642.86
3686.3
3730.75
3775.93
3821.55
3867.32
3912.97
3958.19
4002.64
4045.88
4087.31
4125.98
4160.26
4187.27
4201.76
4193.95
4145.62
4022.63
3760.94
3239.85
2228.91
472.81
2312.76
15000
15000
15000
15000
14999.9
14999.9
14999.9
14999.8
14999.8
14999.8
14999.8
14999.8
14999.8
14999.8
14999.8
14999.8
14999.8
14999.8
14999.8
14999.9
14999.9
14999.9
14999.9
14999.9
14999.9
14999.9
15000
15000
15000
15000
15000
15000
15000
15000
15000
15000
14999.9
14999.9
14999.9
14999.9
14999.8
14999.8
14999.7
14999.7
14999.6
14999.5
14999.3
14999.2
14999
14998.7
14998.4
14998.1
14997.6
14997.1
14996.5
14995.7
14994.8
14993.7
14992.4
14990.9
14989
14986.9
14984.3
14981.4
14977.9
14973.8
14969.1
14963.6
14957.3
14950
14941.6
14932
14920.9
14908.4
14894.1
14878
14859.7
14839.1
14815.9
14790
14761
14728.6
14692.7
14652.9
14608.8
14560.3
14506.9
14448.5
14384.5
14314.8
14239
14156.9
14068
13972.3
13869.2
13758.8
13640.6
13514.6
13380.6
13238.4
13088
12929.3
12762.3
12587.1
12403.8
12212.4
12013.3
11806.5
11592.5
11371.6
11144.2
10910.7
10671.5
10427.4
10178.7
9926.2
9670.46
9412.17
9152.03
8890.75
8629.08
8367.74
8107.48
7849.04
7593.14
7340.5
7091.81
6847.76
6608.97
6376.05
6149.59
5930.1
5718.08
5513.97
5318.15
5130.98
4952.74
4783.67
4623.98
4473.79
4333.2
4202.25
4080.94
3969.23
3867.02
3774.19
3690.57
3615.98
3550.18
3492.92
3443.92
3402.88
3369.49
3343.41
3324.3
3311.8
3305.55
3305.19
3310.34
3320.63
3335.69
3355.14
3378.63
3405.79
3436.27
3469.71
3505.78
3544.13
3584.44
3626.4
3669.7
3714.04
3759.12
3804.66
3850.38
3895.99
3941.19
3985.64
4028.91
4070.39
4109.13
4143.54
4170.76
4185.56
4178.28
4130.77
4009.02
3748.95
3229.54
2222.2
468.769
2306.27
15000
15000
14999.9
14999.9
14999.8
14999.8
14999.7
14999.7
14999.6
14999.6
14999.6
14999.6
14999.6
14999.6
14999.6
14999.6
14999.6
14999.7
14999.7
14999.7
14999.8
14999.8
14999.8
14999.9
14999.9
14999.9
14999.9
14999.9
15000
15000
15000
15000
15000
15000
15000
14999.9
14999.9
14999.9
14999.9
14999.9
14999.8
14999.8
14999.7
14999.7
14999.6
14999.5
14999.3
14999.2
14999
14998.7
14998.4
14998.1
14997.6
14997.1
14996.5
14995.7
14994.8
14993.7
14992.4
14990.9
14989.1
14986.9
14984.4
14981.4
14977.9
14973.9
14969.1
14963.7
14957.3
14950
14941.6
14932
14921
14908.5
14894.2
14878.1
14859.8
14839.3
14816.1
14790.2
14761.2
14728.9
14693
14653.2
14609.2
14560.7
14507.4
14449
14385.1
14315.4
14239.7
14157.6
14068.8
13973
13870.1
13759.7
13641.6
13515.6
13381.7
13239.5
13089.2
12930.5
12763.6
12588.4
12405.1
12213.8
12014.6
11807.9
11593.9
11373
11145.6
10912
10672.8
10428.6
10179.9
9927.27
9671.42
9413
9152.72
8891.28
8629.43
8367.89
8107.41
7848.72
7592.56
7339.64
7090.65
6846.27
6607.13
6373.86
6147.01
5927.12
5714.69
5510.14
5313.88
5126.24
4947.53
4777.98
4617.79
4467.09
4325.98
4194.52
4072.68
3960.44
3857.7
3764.33
3680.19
3605.06
3538.73
3480.95
3431.43
3389.89
3355.99
3329.42
3309.84
3296.87
3290.17
3289.37
3294.1
3303.99
3318.66
3337.75
3360.89
3387.73
3417.9
3451.06
3486.86
3524.97
3565.08
3606.85
3649.98
3694.17
3739.13
3784.58
3830.22
3875.79
3920.97
3965.42
4008.71
4050.24
4089.07
4123.61
4151.02
4166.11
4159.26
4112.41
3991.62
3733.04
3216.71
2217.23
456.124
2290.13
15000
14999.9
14999.9
14999.8
14999.7
14999.6
14999.5
14999.4
14999.3
14999.2
14999.2
14999.2
14999.2
14999.2
14999.3
14999.3
14999.4
14999.4
14999.5
14999.6
14999.6
14999.7
14999.7
14999.8
14999.8
14999.9
14999.9
14999.9
14999.9
14999.9
15000
15000
15000
15000
15000
14999.9
14999.9
14999.9
14999.9
14999.9
14999.8
14999.8
14999.7
14999.7
14999.6
14999.5
14999.3
14999.2
14999
14998.7
14998.4
14998.1
14997.7
14997.1
14996.5
14995.7
14994.8
14993.7
14992.4
14990.9
14989.1
14986.9
14984.4
14981.4
14977.9
14973.9
14969.2
14963.7
14957.4
14950.1
14941.7
14932.1
14921.1
14908.6
14894.4
14878.2
14860
14839.5
14816.3
14790.4
14761.5
14729.2
14693.3
14653.6
14609.6
14561.2
14507.9
14449.5
14385.7
14316.1
14240.4
14158.4
14069.6
13974
13871.1
13760.7
13642.7
13516.8
13382.9
13240.8
13090.5
12931.9
12765.1
12589.9
12406.7
12215.4
12016.3
11809.6
11595.6
11374.6
11147.2
10913.6
10674.4
10430.1
10181.2
9928.53
9672.56
9414
9153.55
8891.92
8629.86
8368.09
8107.35
7848.39
7591.92
7338.68
7089.34
6844.59
6605.06
6371.37
6144.08
5923.74
5710.82
5505.78
5309
5120.83
4941.58
4771.47
4610.7
4459.42
4317.72
4185.65
4063.21
3950.36
3847
3753.03
3668.27
3592.53
3525.59
3467.2
3417.09
3374.95
3340.48
3313.35
3293.2
3279.7
3272.48
3271.17
3275.41
3284.83
3299.05
3317.72
3340.46
3366.91
3396.73
3429.56
3465.06
3502.89
3542.75
3584.29
3627.23
3671.25
3716.07
3761.4
3806.97
3852.47
3897.62
3942.06
3985.37
4026.96
4065.88
4100.54
4128.14
4143.51
4137.05
4090.74
3970.62
3712.48
3194.36
2183.91
450.408
2271.87
15000
14999.9
14999.7
14999.5
14999.3
14999.1
14998.9
14998.8
14998.7
14998.6
14998.6
14998.6
14998.6
14998.7
14998.8
14998.8
14998.9
14999.1
14999.2
14999.3
14999.4
14999.5
14999.6
14999.7
14999.7
14999.8
14999.8
14999.9
14999.9
14999.9
14999.9
14999.9
15000
15000
14999.9
14999.9
14999.9
14999.9
14999.9
14999.9
14999.8
14999.8
14999.7
14999.7
14999.6
14999.5
14999.3
14999.2
14999
14998.7
14998.5
14998.1
14997.7
14997.1
14996.5
14995.7
14994.8
14993.7
14992.4
14990.9
14989.1
14986.9
14984.4
14981.4
14978
14973.9
14969.2
14963.8
14957.5
14950.2
14941.8
14932.2
14921.3
14908.8
14894.5
14878.4
14860.2
14839.7
14816.6
14790.7
14761.8
14729.6
14693.7
14654
14610.1
14561.7
14508.5
14450.2
14386.4
14316.8
14241.2
14159.3
14070.6
13975
13872.2
13761.9
13644
13518.1
13384.3
13242.3
13092.1
12933.5
12766.7
12591.7
12408.4
12217.2
12018.1
11811.4
11597.4
11376.5
11149
10915.4
10676.1
10431.7
10182.8
9929.98
9673.86
9415.14
9154.51
8892.68
8630.38
8368.35
8107.33
7848.05
7591.25
7337.64
7087.91
6842.74
6602.77
6368.61
6140.83
5919.98
5706.52
5500.92
5303.56
5114.8
4934.93
4764.19
4602.78
4450.84
4308.48
4175.73
4052.61
3939.07
3835.02
3740.35
3654.89
3578.46
3510.84
3451.77
3400.98
3358.18
3323.06
3295.28
3274.51
3260.4
3252.58
3250.7
3254.39
3263.27
3276.99
3295.17
3317.45
3343.47
3372.88
3405.33
3440.49
3478.01
3517.57
3558.86
3601.57
3645.4
3690.05
3735.25
3780.71
3826.15
3871.25
3915.68
3959.01
4000.65
4039.66
4074.45
4102.24
4117.88
4111.79
4066.02
3946.66
3689.52
3172.51
2162.96
446.918
2268.84
15000
14999.7
14999.3
14998.9
14998.5
14998.2
14998
14997.8
14997.6
14997.6
14997.5
14997.6
14997.7
14997.8
14998
14998.1
14998.3
14998.5
14998.7
14998.9
14999
14999.2
14999.3
14999.5
14999.6
14999.7
14999.7
14999.8
14999.8
14999.9
14999.9
14999.9
14999.9
14999.9
14999.9
14999.9
14999.9
14999.9
14999.9
14999.9
14999.8
14999.8
14999.7
14999.7
14999.6
14999.5
14999.3
14999.2
14999
14998.7
14998.5
14998.1
14997.7
14997.1
14996.5
14995.7
14994.8
14993.8
14992.5
14990.9
14989.1
14987
14984.4
14981.5
14978
14974
14969.3
14963.8
14957.5
14950.3
14941.9
14932.3
14921.4
14908.9
14894.7
14878.6
14860.4
14839.9
14816.9
14791
14762.2
14730
14694.2
14654.5
14610.7
14562.3
14509.2
14450.9
14387.2
14317.7
14242.2
14160.3
14071.7
13976.2
13873.4
13763.2
13645.4
13519.6
13385.9
13244
13093.8
12935.3
12768.6
12593.6
12410.4
12219.2
12020.1
11813.5
11599.5
11378.6
11151
10917.4
10678
10433.6
10184.6
9931.61
9675.35
9416.46
9155.62
8893.56
8631.01
8368.69
8107.35
7847.73
7590.56
7336.55
7086.39
6840.76
6600.3
6365.62
6137.3
5915.88
5701.83
5495.61
5297.62
5108.19
4927.64
4756.21
4594.08
4441.42
4298.32
4164.83
4040.95
3926.64
3821.83
3726.39
3640.17
3562.97
3494.58
3434.76
3383.22
3339.68
3303.83
3275.34
3253.87
3239.08
3230.6
3228.08
3231.15
3239.44
3252.59
3270.23
3291.99
3317.53
3346.49
3378.52
3413.28
3450.44
3489.68
3530.68
3573.13
3616.74
3661.21
3706.25
3751.59
3796.94
3841.99
3886.4
3929.75
3971.43
4010.53
4045.46
4073.44
4089.35
4083.67
4038.52
3920.22
3665.22
3153.88
2161.35
446.874
2289.25
15000
14999.2
14998.4
14997.6
14997
14996.6
14996.3
14996
14995.9
14995.9
14995.9
14996.1
14996.3
14996.5
14996.8
14997.1
14997.4
14997.7
14998
14998.3
14998.5
14998.8
14999
14999.2
14999.3
14999.5
14999.6
14999.7
14999.8
14999.8
14999.9
14999.9
14999.9
14999.9
14999.9
14999.9
14999.9
14999.9
14999.9
14999.9
14999.8
14999.8
14999.7
14999.7
14999.6
14999.5
14999.3
14999.2
14999
14998.8
14998.5
14998.1
14997.7
14997.1
14996.5
14995.8
14994.8
14993.8
14992.5
14990.9
14989.1
14987
14984.5
14981.5
14978.1
14974
14969.3
14963.9
14957.6
14950.4
14942
14932.5
14921.5
14909.1
14894.9
14878.8
14860.7
14840.2
14817.2
14791.4
14762.6
14730.4
14694.7
14655
14611.2
14563
14509.9
14451.7
14388
14318.6
14243.2
14161.4
14072.9
13977.4
13874.8
13764.7
13646.9
13521.3
13387.6
13245.8
13095.7
12937.3
12770.6
12595.7
12412.6
12221.4
12022.4
11815.8
11601.8
11380.9
11153.3
10919.6
10680.2
10435.7
10186.5
9933.44
9677.02
9417.93
9156.88
8894.58
8631.74
8369.12
8107.44
7847.45
7589.87
7335.42
7084.79
6838.66
6597.68
6362.44
6133.53
5911.49
5696.8
5489.91
5291.22
5101.07
4919.78
4747.59
4584.69
4431.24
4287.33
4153.02
4028.32
3913.18
3807.53
3711.25
3624.18
3546.15
3476.93
3416.27
3363.92
3319.57
3282.92
3253.65
3231.42
3215.88
3206.67
3203.45
3205.84
3213.48
3226
3243.04
3264.24
3289.24
3317.69
3349.25
3383.58
3420.35
3459.22
3499.9
3542.06
3585.42
3629.67
3674.54
3719.74
3764.98
3809.97
3854.35
3897.7
3939.44
3978.62
4013.68
4041.86
4058.07
4052.84
4008.43
3891.49
3639.27
3134.28
2160.1
448.2
2328.92
15000
14998.1
14996.2
14994.9
14994.2
14993.8
14993.5
14993.3
14993.3
14993.4
14993.6
14993.9
14994.3
14994.7
14995.1
14995.6
14996.1
14996.5
14997
14997.4
14997.8
14998.2
14998.5
14998.8
14999
14999.2
14999.4
14999.5
14999.7
14999.7
14999.8
14999.9
14999.9
14999.9
14999.9
14999.9
14999.9
14999.9
14999.9
14999.9
14999.8
14999.8
14999.7
14999.7
14999.6
14999.5
14999.4
14999.2
14999
14998.8
14998.5
14998.1
14997.7
14997.2
14996.5
14995.8
14994.9
14993.8
14992.5
14991
14989.2
14987
14984.5
14981.6
14978.1
14974.1
14969.4
14964
14957.7
14950.5
14942.1
14932.6
14921.7
14909.2
14895.1
14879.1
14860.9
14840.5
14817.5
14791.8
14763
14730.9
14695.2
14655.6
14611.9
14563.7
14510.7
14452.5
14389
14319.7
14244.3
14162.6
14074.2
13978.8
13876.3
13766.3
13648.6
13523.1
13389.5
13247.8
13097.8
12939.5
12772.9
12598
12415
12223.9
12024.9
11818.3
11604.3
11383.4
11155.8
10922
10682.6
10437.9
10188.7
9935.47
9678.87
9419.59
9158.3
8895.73
8632.6
8369.65
8107.61
7847.22
7589.2
7334.29
7083.16
6836.49
6594.93
6359.1
6129.56
5906.85
5691.46
5483.85
5284.41
5093.5
4911.41
4738.4
4574.67
4420.36
4275.59
4140.4
4014.8
3898.77
3792.21
3695.03
3607.06
3528.12
3457.99
3396.44
3343.2
3297.98
3260.47
3230.35
3207.28
3190.93
3180.94
3176.95
3178.6
3185.53
3197.36
3213.75
3234.33
3258.75
3286.65
3317.7
3351.55
3387.87
3426.35
3466.66
3508.51
3551.58
3595.6
3640.27
3685.31
3730.43
3775.33
3819.68
3863.03
3904.8
3944.07
3979.27
4007.66
4024.17
4019.42
3975.82
3860.28
3610.55
3109.4
2136.39
446.199
2361.34
15000
14996
14992.1
14990
14989.3
14989.3
14989.4
14989.5
14989.7
14990
14990.5
14991
14991.6
14992.2
14992.9
14993.6
14994.4
14995.1
14995.7
14996.4
14996.9
14997.4
14997.9
14998.3
14998.7
14998.9
14999.2
14999.4
14999.5
14999.6
14999.7
14999.8
14999.8
14999.9
14999.9
14999.9
14999.9
14999.9
14999.9
14999.9
14999.8
14999.8
14999.7
14999.7
14999.6
14999.5
14999.4
14999.2
14999
14998.8
14998.5
14998.1
14997.7
14997.2
14996.5
14995.8
14994.9
14993.8
14992.5
14991
14989.2
14987.1
14984.5
14981.6
14978.2
14974.1
14969.5
14964.1
14957.8
14950.6
14942.3
14932.7
14921.9
14909.4
14895.3
14879.3
14861.2
14840.8
14817.9
14792.2
14763.4
14731.4
14695.8
14656.3
14612.6
14564.4
14511.5
14453.5
14390
14320.8
14245.5
14163.9
14075.6
13980.3
13877.9
13768
13650.4
13525
13391.5
13249.9
13100
12941.8
12775.3
12600.5
12417.5
12226.5
12027.6
11821
11607.1
11386.1
11158.5
10924.7
10685.2
10440.4
10191.1
9937.69
9680.92
9421.42
9159.89
8897.04
8633.59
8370.29
8107.86
7847.05
7588.58
7333.17
7081.51
6834.27
6592.11
6355.63
6125.42
5902
5685.88
5477.5
5277.27
5085.53
4902.6
4728.72
4564.09
4408.88
4263.18
4127.05
4000.51
3883.51
3776
3677.84
3588.9
3508.99
3437.9
3375.39
3321.2
3275.04
3236.6
3205.57
3181.61
3164.39
3153.55
3148.74
3149.59
3155.75
3166.85
3182.53
3202.44
3226.22
3253.53
3284.02
3317.35
3353.19
3391.23
3431.15
3472.64
3515.41
3559.15
3603.6
3648.46
3693.44
3738.25
3782.53
3825.88
3867.68
3907.02
3942.37
3970.96
3987.8
3983.57
3940.79
3826.63
3579.11
3080.96
2108.33
442.726
2404.95
15000
14992.9
14986.4
14983.2
14982.9
14983.6
14984.3
14984.8
14985.3
14985.9
14986.6
14987.4
14988.3
14989.3
14990.3
14991.3
14992.3
14993.2
14994.1
14995
14995.8
14996.5
14997.2
14997.7
14998.2
14998.6
14998.9
14999.1
14999.4
14999.5
14999.6
14999.7
14999.8
14999.8
14999.9
14999.9
14999.9
14999.9
14999.9
14999.9
14999.8
14999.8
14999.7
14999.7
14999.6
14999.5
14999.4
14999.2
14999
14998.8
14998.5
14998.1
14997.7
14997.2
14996.5
14995.8
14994.9
14993.8
14992.5
14991
14989.2
14987.1
14984.6
14981.7
14978.2
14974.2
14969.6
14964.2
14957.9
14950.7
14942.4
14932.9
14922
14909.6
14895.6
14879.6
14861.5
14841.2
14818.3
14792.6
14763.9
14731.9
14696.4
14656.9
14613.3
14565.3
14512.4
14454.5
14391.1
14322
14246.8
14165.3
14077.1
13981.9
13879.6
13769.8
13652.4
13527.1
13393.7
13252.2
13102.4
12944.3
12777.9
12603.2
12420.3
12229.3
12030.5
11823.9
11610
11389
11161.4
10927.6
10688
10443.1
10193.7
9940.12
9683.15
9423.43
9161.65
8898.5
8634.73
8371.06
8108.23
7846.97
7588.02
7332.09
7079.86
6832.03
6589.23
6352.08
6121.16
5897
5680.1
5470.92
5269.84
5077.24
4893.41
4718.61
4553.05
4396.87
4250.2
4113.08
3985.53
3867.52
3758.98
3659.8
3569.83
3488.89
3416.78
3353.25
3298.05
3250.89
3211.46
3179.47
3154.56
3136.41
3124.67
3118.97
3118.97
3124.31
3134.62
3149.55
3168.74
3191.84
3218.5
3248.38
3281.15
3316.48
3354.04
3393.53
3434.63
3477.06
3520.51
3564.7
3609.36
3654.18
3698.87
3743.09
3786.41
3828.23
3867.65
3903.13
3931.94
3949.12
3945.42
3903.54
3790.91
3546.07
3052.8
2090.84
441.639
2435
15000
14990.8
14982.4
14978.3
14977.8
14978.6
14979.5
14980.2
14980.8
14981.6
14982.5
14983.6
14984.7
14985.9
14987.2
14988.5
14989.8
14991.1
14992.3
14993.5
14994.5
14995.4
14996.3
14997
14997.6
14998.1
14998.5
14998.9
14999.2
14999.4
14999.5
14999.7
14999.7
14999.8
14999.8
14999.9
14999.9
14999.9
14999.9
14999.9
14999.8
14999.8
14999.7
14999.7
14999.6
14999.5
14999.4
14999.2
14999
14998.8
14998.5
14998.1
14997.7
14997.2
14996.6
14995.8
14994.9
14993.8
14992.6
14991
14989.2
14987.1
14984.6
14981.7
14978.3
14974.3
14969.6
14964.2
14958
14950.8
14942.6
14933.1
14922.2
14909.9
14895.8
14879.9
14861.9
14841.5
14818.7
14793.1
14764.5
14732.5
14697
14657.7
14614.1
14566.2
14513.4
14455.5
14392.2
14323.2
14248.2
14166.7
14078.7
13983.7
13881.5
13771.8
13654.5
13529.3
13396.1
13254.7
13105
12947
12780.7
12606.1
12423.3
12232.4
12033.5
11827
11613.2
11392.2
11164.6
10930.7
10691
10446.1
10196.4
9942.74
9685.58
9425.63
9163.58
8900.13
8636.02
8371.97
8108.72
7847
7587.54
7331.07
7078.26
6829.8
6586.34
6348.49
6116.83
5891.89
5674.18
5464.14
5262.19
5068.68
4883.92
4708.16
4541.61
4384.43
4236.72
4098.56
3969.96
3850.88
3741.27
3641.01
3549.96
3467.94
3394.75
3330.15
3273.88
3225.67
3185.21
3152.19
3126.28
3107.15
3094.44
3087.82
3086.92
3091.38
3100.85
3114.98
3133.4
3155.77
3181.74
3210.98
3243.14
3277.91
3314.96
3353.98
3394.67
3436.72
3479.85
3523.76
3568.19
3612.83
3657.39
3701.52
3744.79
3786.63
3826.11
3861.72
3890.75
3908.28
3905.17
3864.31
3753.6
3512.85
3029.73
2096.94
450.02
2367.56
15000
14991.9
14984
14979.3
14977.4
14976.9
14976.7
14976.7
14977.1
14977.7
14978.6
14979.8
14981.1
14982.5
14984.1
14985.7
14987.3
14988.8
14990.3
14991.8
14993.1
14994.2
14995.3
14996.2
14997
14997.6
14998.1
14998.6
14998.9
14999.2
14999.4
14999.6
14999.7
14999.8
14999.8
14999.9
14999.9
14999.9
14999.9
14999.9
14999.8
14999.8
14999.7
14999.7
14999.6
14999.5
14999.4
14999.2
14999
14998.8
14998.5
14998.1
14997.7
14997.2
14996.6
14995.8
14994.9
14993.8
14992.6
14991.1
14989.3
14987.2
14984.7
14981.8
14978.3
14974.4
14969.7
14964.4
14958.1
14951
14942.7
14933.3
14922.4
14910.1
14896.1
14880.2
14862.2
14841.9
14819.1
14793.6
14765
14733.1
14697.7
14658.4
14615
14567.1
14514.4
14456.6
14393.5
14324.6
14249.6
14168.3
14080.4
13985.5
13883.4
13773.9
13656.7
13531.6
13398.5
13257.3
13107.7
12949.9
12783.7
12609.1
12426.4
12235.6
12036.8
11830.4
11616.5
11395.5
11167.9
10933.9
10694.2
10449.2
10199.4
9945.56
9688.21
9428.02
9165.7
8901.94
8637.47
8373.03
8109.34
7847.14
7587.17
7330.13
7076.72
6827.62
6583.47
6344.88
6112.45
5886.71
5668.15
5457.24
5254.38
5059.92
4874.19
4697.42
4529.85
4371.62
4222.85
4083.61
3953.9
3833.72
3722.99
3621.6
3529.42
3446.27
3371.96
3306.23
3248.85
3199.54
3157.99
3123.89
3096.93
3076.76
3063.05
3055.45
3053.59
3057.13
3065.72
3078.99
3096.6
3118.2
3143.44
3171.99
3203.51
3237.68
3274.18
3312.7
3352.93
3394.58
3437.35
3480.96
3525.13
3569.57
3613.97
3657.99
3701.21
3743.04
3782.58
3818.31
3847.56
3865.45
3862.96
3823.17
3714.41
3477.3
3000.94
2078.77
453.314
2310.84
15000
14994.3
14988.1
14983.2
14979.9
14977.6
14976
14975
14974.7
14974.9
14975.5
14976.6
14977.9
14979.4
14981.1
14982.9
14984.7
14986.6
14988.3
14990
14991.6
14993
14994.2
14995.3
14996.3
14997.1
14997.7
14998.3
14998.7
14999
14999.3
14999.5
14999.6
14999.7
14999.8
14999.8
14999.9
14999.9
14999.9
14999.9
14999.8
14999.8
14999.7
14999.7
14999.6
14999.5
14999.4
14999.2
14999
14998.8
14998.5
14998.1
14997.7
14997.2
14996.6
14995.8
14994.9
14993.9
14992.6
14991.1
14989.3
14987.2
14984.7
14981.8
14978.4
14974.4
14969.8
14964.5
14958.3
14951.1
14942.9
14933.4
14922.7
14910.4
14896.4
14880.5
14862.6
14842.4
14819.6
14794.1
14765.6
14733.8
14698.5
14659.2
14615.9
14568.1
14515.5
14457.8
14394.8
14326
14251.1
14170
14082.1
13987.4
13885.5
13776.1
13659
13534.1
13401.1
13260
13110.6
12952.8
12786.8
12612.4
12429.7
12239
12040.3
11833.9
11620
11399.1
11171.4
10937.4
10697.6
10452.5
10202.6
9948.59
9691.02
9430.6
9168
8903.92
8639.09
8374.24
8110.11
7847.42
7586.91
7329.29
7075.26
6825.49
6580.64
6341.3
6108.08
5881.5
5662.08
5450.26
5246.46
5051.03
4864.28
4686.49
4517.85
4358.54
4208.67
4068.3
3937.46
3816.13
3704.23
3601.68
3508.33
3424.01
3348.52
3281.63
3223.09
3172.63
3129.94
3094.73
3066.67
3045.42
3030.66
3022.02
3019.17
3021.75
3029.4
3041.78
3058.53
3079.31
3103.78
3131.6
3162.44
3195.98
3231.89
3269.87
3309.61
3350.82
3393.21
3436.49
3480.38
3524.58
3568.8
3612.7
3655.84
3697.65
3737.23
3773.07
3802.54
3820.8
3818.93
3780.23
3673.31
3439.09
2965.53
2035.96
449.89
2267.23
15000
14996.2
14991.6
14987
14982.9
14979.5
14976.8
14974.9
14973.8
14973.4
14973.6
14974.3
14975.5
14976.9
14978.6
14980.5
14982.5
14984.5
14986.5
14988.4
14990.2
14991.8
14993.2
14994.5
14995.6
14996.5
14997.3
14997.9
14998.4
14998.8
14999.1
14999.4
14999.5
14999.7
14999.7
14999.8
14999.8
14999.9
14999.9
14999.8
14999.8
14999.8
14999.7
14999.7
14999.6
14999.5
14999.4
14999.2
14999
14998.8
14998.5
14998.1
14997.7
14997.2
14996.6
14995.8
14995
14993.9
14992.6
14991.1
14989.3
14987.2
14984.8
14981.9
14978.5
14974.5
14969.9
14964.6
14958.4
14951.3
14943.1
14933.7
14922.9
14910.6
14896.7
14880.9
14863
14842.8
14820.1
14794.7
14766.2
14734.5
14699.2
14660.1
14616.8
14569.1
14516.6
14459.1
14396.1
14327.5
14252.7
14171.7
14084
13989.4
13887.6
13778.4
13661.5
13536.7
13403.9
13262.9
13113.6
12956
12790
12615.7
12433.2
12242.5
12043.9
11837.6
11623.8
11402.8
11175.1
10941.1
10701.2
10456
10206
9951.8
9694.04
9433.37
9170.48
8906.08
8640.88
8375.62
8111.03
7847.85
7586.79
7328.58
7073.91
6823.46
6577.88
6337.78
6103.74
5876.31
5656
5443.25
5238.48
5042.05
4854.27
4675.42
4505.69
4345.27
4194.26
4052.74
3920.73
3798.21
3685.12
3581.36
3486.8
3401.27
3324.57
3256.48
3196.74
3145.09
3101.23
3064.85
3035.65
3013.29
2997.43
2987.72
2983.83
2985.4
2992.08
3003.53
3019.38
3039.31
3062.96
3090.02
3120.13
3153
3188.29
3225.69
3264.91
3305.66
3347.63
3390.54
3434.12
3478.07
3522.08
3565.83
3608.87
3650.65
3690.25
3726.19
3755.87
3774.51
3773.29
3735.72
3630.89
3400.62
2935.34
2030.57
451.034
2211.16
15000
14997.4
14993.9
14989.9
14985.8
14982
14978.7
14976.2
14974.4
14973.4
14973
14973.3
14974.1
14975.3
14976.9
14978.8
14980.8
14982.9
14985
14987
14989
14990.7
14992.3
14993.8
14995
14996.1
14996.9
14997.6
14998.2
14998.7
14999
14999.3
14999.5
14999.6
14999.7
14999.8
14999.8
14999.8
14999.9
14999.8
14999.8
14999.8
14999.7
14999.7
14999.6
14999.5
14999.4
14999.2
14999
14998.8
14998.5
14998.1
14997.7
14997.2
14996.6
14995.9
14995
14993.9
14992.7
14991.2
14989.4
14987.3
14984.8
14981.9
14978.6
14974.6
14970
14964.7
14958.5
14951.4
14943.2
14933.9
14923.1
14910.9
14897
14881.2
14863.4
14843.2
14820.6
14795.2
14766.9
14735.2
14700
14661
14617.8
14570.2
14517.8
14460.4
14397.5
14329
14254.4
14173.5
14086
13991.5
13889.9
13780.8
13664
13539.4
13406.7
13265.9
13116.7
12959.3
12793.4
12619.3
12436.8
12246.3
12047.7
11841.4
11627.7
11406.8
11179.1
10945
10705
10459.7
10209.6
9955.21
9697.24
9436.32
9173.15
8908.42
8642.85
8377.17
8112.12
7848.42
7586.81
7328
7072.69
6821.54
6575.22
6334.34
6099.47
5871.18
5649.95
5436.25
5230.5
5033.05
4844.22
4664.28
4493.44
4331.88
4179.71
4037.01
3903.79
3780.06
3665.74
3560.75
3464.95
3378.18
3300.24
3230.91
3169.94
3117.06
3071.99
3034.42
3004.04
2980.52
2963.53
2952.72
2947.75
2948.27
2953.94
2964.41
2979.33
2998.36
3021.17
3047.42
3076.78
3108.93
3143.56
3180.36
3219.03
3259.27
3300.79
3343.32
3386.55
3430.22
3474
3517.57
3560.5
3602.21
3641.82
3677.86
3707.73
3726.74
3726.19
3689.85
3587.38
3361.9
2906.98
2023.59
463.658
2161.65
15000
14998.1
14995.4
14992
14988.3
14984.7
14981.3
14978.4
14976.1
14974.5
14973.7
14973.4
14973.8
14974.8
14976.1
14977.8
14979.7
14981.8
14983.9
14986
14988.1
14989.9
14991.7
14993.2
14994.5
14995.6
14996.6
14997.4
14998
14998.5
14998.9
14999.2
14999.4
14999.6
14999.7
14999.8
14999.8
14999.8
14999.8
14999.8
14999.8
14999.8
14999.7
14999.7
14999.6
14999.5
14999.4
14999.2
14999
14998.8
14998.5
14998.2
14997.7
14997.2
14996.6
14995.9
14995
14993.9
14992.7
14991.2
14989.4
14987.3
14984.9
14982
14978.6
14974.7
14970.1
14964.8
14958.7
14951.6
14943.4
14934.1
14923.4
14911.2
14897.3
14881.6
14863.8
14843.7
14821.2
14795.8
14767.5
14736
14700.9
14661.9
14618.8
14571.3
14519.1
14461.7
14399
14330.6
14256.2
14175.4
14088
13993.7
13892.2
13783.3
13666.7
13542.2
13409.7
13269
13120
12962.7
12797
12622.9
12440.6
12250.2
12051.7
11845.5
11631.7
11410.8
11183.1
10949
10709
10463.6
10213.3
9958.8
9700.62
9439.46
9176
8910.94
8644.99
8378.89
8113.37
7849.17
7586.99
7327.57
7071.6
6819.75
6572.68
6331
6095.3
5866.13
5643.98
5429.32
5222.56
5024.07
4834.17
4653.13
4481.16
4318.44
4165.09
4021.18
3886.75
3761.78
3646.21
3539.96
3442.9
3354.86
3275.65
3205.05
3142.82
3088.69
3042.37
3003.58
2971.99
2947.28
2929.12
2917.17
2911.09
2910.53
2915.16
2924.61
2938.57
2956.67
2978.59
3004
3032.57
3063.98
3097.92
3134.08
3172.16
3211.86
3252.91
3295.01
3337.88
3381.23
3424.76
3468.13
3510.91
3552.54