<?xml version="1.0"?>
<VTKFile type="ImageData" version="0.1" byte_order="LittleEndian">
  <ImageData Origin="0 0 0" Spacing="1e-05 1e-05 1e-05" WholeExtent="0 191 0 191 0 0">
    <Piece Extent="0 191 0 191 0 0">
      <CellData Scalars="T">
        <DataArray type="Float32" Name="T" format="ascii" NumberOfComponents="1">
680.034
15000
15000
15000
15000
15000
15000
14999.9
14999.9
14999.9
14999.9
14999.8
14999.8
14999.7
14999.7
14999.7
14999.6
14999.6
14999.5
14999.5
14999.5
14999.5
14999.5
14999.5
14999.5
14999.5
14999.5
14999.5
14999.5
14999.6
14999.6
14999.6
14999.7
14999.7
14999.7
14999.8
14999.8
14999.8
14999.8
14999.8
14999.9
14999.9
14999.9
14999.9
14999.9
14999.9
14999.9
14999.9
14999.8
14999.8
14999.8
14999.7
14999.7
14999.6
14999.5
14999.4
14999.2
14999
14998.8
14998.6
14998.2
14997.9
14997.4
14996.9
14996.2
14995.4
14994.5
14993.4
14992.2
14990.7
14988.9
14986.8
14984.4
14981.6
14978.4
14974.6
14970.2
14965.2
14959.5
14952.9
14945.3
14936.7
14927
14915.9
14903.3
14889.1
14873.2
14855.3
14835.2
14812.8
14787.9
14760.1
14729.4
14695.3
14657.8
14616.5
14571.2
14521.6
14467.4
14408.3
14344.2
14274.6
14199.4
14118.3
14031
13937.3
13837
13729.9
13615.7
13494.5
13365.9
13229.9
13086.5
12935.6
12777.2
12611.3
12438.1
12257.6
12069.9
11875.4
11674.2
11466.6
11253
11033.7
10809.2
10579.8
10346.1
10108.5
9867.71
9624.16
9378.48
9131.3
8883.22
8634.9
8386.98
8140.09
7894.88
7651.99
7412.04
7175.64
6943.38
6715.82
6493.51
6276.95
6066.62
5862.95
5666.37
5477.22
5295.82
5122.48
4957.41
4800.81
4652.85
4513.63
4383.21
4261.64
4148.9
4044.94
3949.69
3863.02
3784.8
3714.84
3652.95
3598.89
3552.43
3513.29
3481.19
3455.84
3436.91
3424.1
3417.07
3415.49
3419.01
3427.29
3439.98
3456.72
3477.14
3500.86
3527.42
3556.3
3586.8
3617.88
3647.85
3673.81
3690.56
3688.42
3649.28
3538.55
3289.14
2766.85
1687.46
335.163
2435
15000
15000
15000
15000
15000
15000
14999.9
14999.9
14999.9
14999.8
14999.8
14999.7
14999.7
14999.6
14999.6
14999.5
14999.5
14999.5
14999.4
14999.4
14999.4
14999.4
14999.4
14999.4
14999.4
14999.4
14999.4
14999.5
14999.5
14999.5
14999.6
14999.6
14999.6
14999.7
14999.7
14999.7
14999.8
14999.8
14999.8
14999.8
14999.9
14999.9
14999.9
14999.9
14999.9
14999.9
14999.9
14999.8
14999.8
14999.8
14999.7
14999.7
14999.6
14999.5
14999.4
14999.2
14999
14998.8
14998.6
14998.2
14997.9
14997.4
14996.9
14996.2
14995.4
14994.5
14993.4
14992.2
14990.7
14988.9
14986.8
14984.4
14981.6
14978.4
14974.6
14970.3
14965.2
14959.5
14952.9
14945.3
14936.7
14927
14915.9
14903.3
14889.2
14873.2
14855.3
14835.3
14812.9
14787.9
14760.2
14729.4
14695.4
14657.9
14616.6
14571.2
14521.6
14467.4
14408.4
14344.2
14274.7
14199.5
14118.4
14031.1
13937.4
13837.1
13730
13615.9
13494.6
13366.1
13230.1
13086.7
12935.8
12777.4
12611.5
12438.3
12257.8
12070.1
11875.6
11674.4
11466.8
11253.2
11033.9
10809.4
10580
10346.2
10108.7
9867.84
9624.27
9378.57
9131.36
8883.26
8634.91
8386.96
8140.03
7894.79
7651.85
7411.86
7175.41
6943.1
6715.49
6493.12
6276.5
6066.11
5862.38
5665.73
5476.51
5295.05
5121.63
4956.48
4799.81
4651.77
4512.47
4381.98
4260.33
4147.51
4043.47
3948.13
3861.38
3783.08
3713.04
3651.07
3596.93
3550.39
3511.18
3479
3453.57
3434.58
3421.7
3414.6
3412.95
3416.41
3424.63
3437.26
3453.95
3474.32
3497.98
3524.5
3553.35
3583.81
3614.87
3644.84
3670.85
3687.75
3686.08
3648.25
3541.45
3304.83
2828.13
1927.4
492.541
2435
15000
15000
15000
15000
15000
14999.9
14999.9
14999.9
14999.8
14999.8
14999.7
14999.7
14999.6
14999.5
14999.5
14999.4
14999.4
14999.3
14999.3
14999.2
14999.2
14999.2
14999.2
14999.2
14999.2
14999.3
14999.3
14999.3
14999.4
14999.4
14999.5
14999.5
14999.6
14999.6
14999.6
14999.7
14999.7
14999.8
14999.8
14999.8
14999.8
14999.9
14999.9
14999.9
14999.9
14999.9
14999.9
14999.8
14999.8
14999.8
14999.7
14999.7
14999.6
14999.5
14999.4
14999.2
14999
14998.8
14998.6
14998.2
14997.9
14997.4
14996.9
14996.2
14995.4
14994.5
14993.4
14992.2
14990.7
14988.9
14986.8
14984.4
14981.6
14978.4
14974.6
14970.3
14965.3
14959.5
14952.9
14945.4
14936.8
14927
14915.9
14903.4
14889.2
14873.3
14855.4
14835.3
14812.9
14788
14760.2
14729.5
14695.5
14658
14616.7
14571.4
14521.8
14467.6
14408.6
14344.4
14274.9
14199.7
14118.6
14031.3
13937.7
13837.4
13730.3
13616.2
13494.9
13366.4
13230.4
13087
12936.2
12777.8
12611.9
12438.7
12258.1
12070.5
11876
11674.8
11467.2
11253.6
11034.3
10809.7
10580.3
10346.6
10109
9868.1
9624.49
9378.75
9131.5
8883.34
8634.94
8386.91
8139.92
7894.59
7651.58
7411.5
7174.95
6942.54
6714.82
6492.34
6275.61
6065.09
5861.24
5664.45
5475.1
5293.5
5119.93
4954.64
4797.82
4649.63
4510.17
4379.52
4257.71
4144.73
4040.53
3945.03
3858.12
3779.65
3709.45
3647.32
3593.03
3546.33
3506.96
3474.64
3449.06
3429.92
3416.9
3409.67
3407.89
3411.22
3419.32
3431.84
3448.41
3468.68
3492.25
3518.68
3547.45
3577.85
3608.86
3638.82
3664.9
3682.04
3681
3644.75
3541.89
3314.66
2858.16
1983.4
493.339
2435
15000
15000
15000
15000
14999.9
14999.9
14999.9
14999.8
14999.8
14999.7
14999.6
14999.5
14999.5
14999.4
14999.3
14999.2
14999.1
14999.1
14999
14999
14999
14998.9
14998.9
14998.9
14999
14999
14999.1
14999.1
14999.2
14999.2
14999.3
14999.3
14999.4
14999.5
14999.5
14999.6
14999.6
14999.7
14999.7
14999.8
14999.8
14999.8
14999.8
14999.8
14999.9
14999.8
14999.8
14999.8
14999.8
14999.8
14999.7
14999.7
14999.6
14999.5
14999.4
14999.2
14999
14998.8
14998.6
14998.2
14997.9
14997.4
14996.9
14996.2
14995.4
14994.5
14993.4
14992.2
14990.7
14988.9
14986.8
14984.4
14981.6
14978.4
14974.6
14970.3
14965.3
14959.5
14952.9
14945.4
14936.8
14927
14915.9
14903.4
14889.2
14873.3
14855.4
14835.4
14813
14788.1
14760.3
14729.6
14695.6
14658.1
14616.8
14571.6
14522
14467.8
14408.8
14344.7
14275.2
14200
14118.9
14031.7
13938
13837.8
13730.7
13616.6
13495.4
13366.9
13231
13087.6
12936.7
12778.3
12612.5
12439.2
12258.7
12071.1
11876.6
11675.4
11467.8
11254.2
11034.9
10810.3
10580.8
10347.1
10109.4
9868.5
9624.83
9379.03
9131.7
8883.47
8634.97
8386.85
8139.75
7894.31
7651.17
7410.96
7174.28
6941.71
6713.84
6491.19
6274.28
6063.58
5859.54
5662.56
5473
5291.19
5117.41
4951.9
4794.86
4646.43
4506.74
4375.86
4253.81
4140.58
4036.14
3940.4
3853.25
3774.54
3704.1
3641.73
3587.2
3540.27
3500.67
3468.12
3442.33
3422.97
3409.74
3402.31
3400.33
3403.47
3411.39
3423.74
3440.16
3460.27
3483.7
3510
3538.64
3568.94
3599.87
3629.8
3655.93
3673.3
3672.83
3637.89
3537.73
3315.56
2866.66
1998.23
490.348
2435
15000
15000
15000
15000
14999.9
14999.9
14999.8
14999.8
14999.7
14999.6
14999.5
14999.4
14999.3
14999.1
14999
14998.9
14998.8
14998.7
14998.7
14998.6
14998.6
14998.6
14998.6
14998.6
14998.6
14998.7
14998.7
14998.8
14998.9
14999
14999
14999.1
14999.2
14999.3
14999.4
14999.5
14999.5
14999.6
14999.6
14999.7
14999.7
14999.8
14999.8
14999.8
14999.8
14999.8
14999.8
14999.8
14999.8
14999.8
14999.7
14999.6
14999.6
14999.5
14999.4
14999.2
14999
14998.8
14998.6
14998.2
14997.9
14997.4
14996.9
14996.2
14995.4
14994.5
14993.5
14992.2
14990.7
14988.9
14986.9
14984.5
14981.7
14978.4
14974.6
14970.3
14965.3
14959.6
14953
14945.4
14936.8
14927.1
14916
14903.5
14889.3
14873.4
14855.5
14835.5
14813.1
14788.2
14760.5
14729.8
14695.8
14658.3
14617.1
14571.8
14522.2
14468.1
14409.1
14345
14275.5
14200.4
14119.3
14032.1
13938.5
13838.3
13731.2
13617.2
13496
13367.5
13231.6
13088.3
12937.4
12779.1
12613.2
12440
12259.5
12071.9
11877.4
11676.2
11468.6
11255
11035.6
10811
10581.5
10347.7
10110
9869.03
9625.29
9379.4
9131.98
8883.64
8635.03
8386.78
8139.53
7893.95
7650.65
7410.25
7173.39
6940.63
6712.54
6489.67
6272.53
6061.6
5857.3
5660.06
5470.24
5288.15
5114.08
4948.28
4790.94
4642.21
4502.21
4371.01
4248.65
4135.1
4030.34
3934.28
3846.81
3767.78
3697.02
3634.33
3579.49
3532.25
3492.35
3459.5
3433.41
3413.77
3400.26
3392.56
3390.32
3393.22
3400.9
3413.02
3429.21
3449.13
3472.36
3498.48
3526.97
3557.13
3587.95
3617.82
3643.97
3661.5
3661.49
3627.49
3529.05
3309.36
2861.74
1983.39
487.871
2435
15000
15000
15000
14999.9
14999.9
14999.8
14999.8
14999.7
14999.6
14999.4
14999.3
14999.1
14999
14998.8
14998.7
14998.5
14998.4
14998.3
14998.2
14998.1
14998.1
14998.1
14998.1
14998.1
14998.1
14998.2
14998.3
14998.4
14998.5
14998.6
14998.7
14998.8
14999
14999.1
14999.2
14999.3
14999.4
14999.5
14999.5
14999.6
14999.7
14999.7
14999.7
14999.8
14999.8
14999.8
14999.8
14999.8
14999.8
14999.7
14999.7
14999.6
14999.6
14999.5
14999.4
14999.2
14999
14998.8
14998.6
14998.2
14997.9
14997.4
14996.9
14996.2
14995.4
14994.5
14993.5
14992.2
14990.7
14988.9
14986.9
14984.5
14981.7
14978.4
14974.7
14970.3
14965.3
14959.6
14953
14945.5
14936.9
14927.1
14916.1
14903.6
14889.4
14873.5
14855.6
14835.6
14813.3
14788.4
14760.7
14730
14696
14658.6
14617.3
14572.1
14522.6
14468.5
14409.5
14345.4
14276
14200.9
14119.9
14032.7
13939.1
13838.9
13731.9
13617.9
13496.8
13368.3
13232.5
13089.1
12938.3
12780
12614.2
12441
12260.5
12072.9
11878.4
11677.2
11469.6
11256
11036.6
10811.9
10582.4
10348.5
10110.8
9869.69
9625.87
9379.88
9132.33
8883.86
8635.1
8386.7
8139.28
7893.51
7650
7409.4
7172.3
6939.29
6710.95
6487.81
6270.38
6059.15
5854.54
5656.98
5466.82
5284.39
5109.97
4943.81
4786.1
4636.99
4496.61
4365.02
4242.26
4128.33
4023.17
3926.71
3838.84
3759.41
3688.26
3625.17
3569.94
3522.32
3482.04
3448.82
3422.37
3402.38
3388.52
3380.48
3377.93
3380.51
3387.89
3399.72
3415.65
3435.31
3458.3
3484.21
3512.49
3542.47
3573.15
3602.92
3629.05
3646.7
3647.02
3613.76
3516.71
3299.59
2857.33
1993.25
490.656
2435
15000
15000
15000
14999.9
14999.9
14999.8
14999.7
14999.6
14999.4
14999.3
14999.1
14998.9
14998.7
14998.5
14998.2
14998.1
14997.9
14997.7
14997.6
14997.5
14997.5
14997.4
14997.4
14997.5
14997.5
14997.6
14997.7
14997.9
14998
14998.2
14998.3
14998.5
14998.6
14998.8
14998.9
14999
14999.2
14999.3
14999.4
14999.5
14999.6
14999.6
14999.7
14999.7
14999.7
14999.8
14999.8
14999.8
14999.8
14999.7
14999.7
14999.6
14999.6
14999.5
14999.4
14999.2
14999
14998.8
14998.6
14998.2
14997.9
14997.4
14996.9
14996.2
14995.5
14994.5
14993.5
14992.2
14990.7
14988.9
14986.9
14984.5
14981.7
14978.5
14974.7
14970.4
14965.4
14959.6
14953.1
14945.5
14937
14927.2
14916.2
14903.7
14889.5
14873.6
14855.8
14835.8
14813.5
14788.6
14760.9
14730.2
14696.3
14658.9
14617.7
14572.5
14523
14468.9
14410
14345.9
14276.5
14201.5
14120.5
14033.4
13939.9
13839.7
13732.8
13618.8
13497.7
13369.3
13233.5
13090.2
12939.4
12781.1
12615.3
12442.2
12261.7
12074.1
11879.6
11678.4
11470.8
11257.1
11037.7
10813
10583.5
10349.5
10111.7
9870.5
9626.56
9380.45
9132.77
8884.15
8635.22
8386.62
8139
7893
7649.26
7408.4
7171.02
6937.73
6709.08
6485.62
6267.85
6056.26
5851.29
5653.34
5462.79
5279.95
5105.11
4938.52
4780.37
4630.82
4489.98
4357.93
4234.71
4120.3
4014.67
3917.74
3829.39
3749.49
3677.87
3614.32
3558.63
3510.55
3469.81
3436.15
3409.27
3388.85
3374.59
3366.15
3363.21
3365.42
3372.45
3383.94
3399.54
3418.9
3441.6
3467.24
3495.28
3525.05
3555.55
3585.18
3611.26
3628.96
3629.55
3596.91
3501.16
3286.79
2851.29
2008.46
502.122
2435
15000
15000
14999.9
14999.9
14999.8
14999.7
14999.6
14999.4
14999.3
14999
14998.8
14998.5
14998.3
14998
14997.7
14997.5
14997.3
14997.1
14996.9
14996.8
14996.7
14996.7
14996.7
14996.7
14996.8
14996.9
14997.1
14997.2
14997.4
14997.6
14997.8
14998
14998.2
14998.4
14998.6
14998.8
14998.9
14999.1
14999.2
14999.3
14999.4
14999.5
14999.6
14999.6
14999.7
14999.7
14999.7
14999.7
14999.7
14999.7
14999.7
14999.6
14999.6
14999.5
14999.4
14999.2
14999
14998.8
14998.6
14998.2
14997.9
14997.4
14996.9
14996.2
14995.5
14994.6
14993.5
14992.2
14990.7
14989
14986.9
14984.5
14981.7
14978.5
14974.7
14970.4
14965.4
14959.7
14953.1
14945.6
14937
14927.3
14916.3
14903.8
14889.7
14873.8
14855.9
14836
14813.7
14788.8
14761.2
14730.5
14696.6
14659.2
14618.1
14572.9
14523.4
14469.4
14410.5
14346.5
14277.2
14202.2
14121.2
14034.2
13940.7
13840.6
13733.7
13619.8
13498.7
13370.4
13234.6
13091.4
12940.7
12782.4
12616.7
12443.5
12263.1
12075.5
11881
11679.8
11472.2
11258.5
11039.1
10814.3
10584.7
10350.6
10112.7
9871.45
9627.39
9381.13
9133.3
8884.49
8635.37
8386.55
8138.7
7892.45
7648.43
7407.27
7169.58
6935.95
6706.95
6483.12
6264.96
6052.96
5847.57
5649.18
5458.17
5274.87
5099.55
4932.46
4773.8
4623.73
4482.37
4349.8
4226.03
4111.09
4004.91
3907.43
3818.54
3738.09
3665.92
3601.83
3545.61
3497
3455.75
3421.57
3394.19
3373.28
3358.54
3349.64
3346.25
3348.03
3354.65
3365.75
3380.98
3399.97
3422.35
3447.67
3475.43
3504.95
3535.22
3564.69
3590.67
3608.39
3609.2
3577.09
3482.41
3269.89
2836.45
1986.17
500.273
2435
15000
15000
14999.9
14999.9
14999.8
14999.7
14999.5
14999.3
14999.1
14998.8
14998.5
14998.2
14997.8
14997.5
14997.1
14996.8
14996.5
14996.3
14996.1
14995.9
14995.8
14995.8
14995.8
14995.8
14995.9
14996.1
14996.3
14996.5
14996.7
14996.9
14997.2
14997.5
14997.7
14998
14998.2
14998.4
14998.6
14998.8
14999
14999.1
14999.3
14999.4
14999.5
14999.6
14999.6
14999.7
14999.7
14999.7
14999.7
14999.7
14999.7
14999.6
14999.5
14999.5
14999.3
14999.2
14999
14998.8
14998.6
14998.2
14997.9
14997.4
14996.9
14996.2
14995.5
14994.6
14993.5
14992.2
14990.7
14989
14986.9
14984.5
14981.7
14978.5
14974.8
14970.4
14965.5
14959.7
14953.2
14945.7
14937.1
14927.4
14916.4
14903.9
14889.8
14873.9
14856.1
14836.2
14813.9
14789.1
14761.5
14730.8
14697
14659.6
14618.5
14573.4
14523.9
14470
14411.1
14347.2
14277.9
14202.9
14122.1
14035.1
13941.7
13841.6
13734.8
13620.9
13499.9
13371.6
13235.9
13092.8
12942.1
12783.9
12618.2
12445.1
12264.7
12077.1
11882.6
11681.4
11473.8
11260.1
11040.6
10815.8
10586.1
10352
10113.9
9872.54
9628.35
9381.93
9133.92
8884.91
8635.57
8386.51
8138.39
7891.85
7647.52
7406.04
7167.99
6933.99
6704.59
6480.34
6261.74
6049.29
5843.42
5644.53
5453.01
5269.17
5093.31
4925.67
4766.44
4615.79
4473.84
4340.66
4216.3
4100.74
3993.95
3895.85
3806.34
3725.28
3652.49
3587.8
3530.96
3481.76
3439.92
3405.17
3377.22
3355.76
3340.48
3331.05
3327.16
3328.45
3334.6
3345.25
3360.05
3378.64
3400.64
3425.61
3453.05
3482.26
3512.29
3541.56
3567.41
3585.12
3586.09
3554.47
3460.71
3249.53
2816.58
1964.44
498.569
2435
15000
15000
14999.9
14999.8
14999.7
14999.6
14999.4
14999.1
14998.9
14998.5
14998.1
14997.7
14997.3
14996.9
14996.5
14996.1
14995.7
14995.4
14995.1
14994.9
14994.8
14994.8
14994.8
14994.8
14994.9
14995.1
14995.3
14995.6
14995.9
14996.2
14996.5
14996.8
14997.1
14997.4
14997.7
14998
14998.3
14998.5
14998.7
14998.9
14999.1
14999.2
14999.4
14999.5
14999.5
14999.6
14999.6
14999.7
14999.7
14999.7
14999.6
14999.6
14999.5
14999.5
14999.3
14999.2
14999
14998.8
14998.6
14998.3
14997.9
14997.4
14996.9
14996.2
14995.5
14994.6
14993.5
14992.2
14990.7
14989
14986.9
14984.6
14981.8
14978.6
14974.8
14970.5
14965.5
14959.8
14953.3
14945.8
14937.2
14927.5
14916.5
14904
14890
14874.1
14856.3
14836.4
14814.2
14789.4
14761.8
14731.2
14697.4
14660.1
14619
14573.9
14524.5
14470.6
14411.8
14348
14278.7
14203.8
14123
14036.1
13942.7
13842.8
13736
13622.2
13501.3
13373.1
13237.4
13094.3
12943.7
12785.5
12619.9
12446.8
12266.4
12078.9
11884.4
11683.2
11475.6
11261.8
11042.3
10817.4
10587.7
10353.5
10115.3
9873.79
9629.44
9382.85
9134.63
8885.41
8635.82
8386.5
8138.09
7891.23
7646.56
7404.71
7166.28
6931.86
6702.02
6477.31
6258.23
6045.27
5838.87
5639.44
5447.35
5262.92
5086.46
4918.2
4758.34
4607.05
4464.44
4330.6
4205.57
4089.33
3981.86
3883.08
3792.88
3711.13
3637.67
3572.29
3514.79
3464.92
3422.43
3387.03
3358.45
3336.38
3320.5
3310.49
3306.03
3306.78
3312.4
3322.55
3336.88
3355.02
3376.59
3401.17
3428.23
3457.12
3486.86
3515.89
3541.58
3559.26
3560.4
3529.29
3436.75
3228.26
2802.1
1970.6
501.843
2435
15000
15000
14999.9
14999.8
14999.7
14999.5
14999.3
14999
14998.6
14998.2
14997.8
14997.3
14996.8
14996.3
14995.8
14995.3
14994.9
14994.5
14994.1
14993.9
14993.7
14993.7
14993.6
14993.7
14993.9
14994.1
14994.3
14994.6
14995
14995.3
14995.7
14996.1
14996.5
14996.9
14997.2
14997.6
14997.9
14998.2
14998.4
14998.7
14998.9
14999.1
14999.2
14999.3
14999.4
14999.5
14999.6
14999.6
14999.6
14999.6
14999.6
14999.6
14999.5
14999.4
14999.3
14999.2
14999
14998.8
14998.6
14998.3
14997.9
14997.4
14996.9
14996.2
14995.5
14994.6
14993.5
14992.2
14990.8
14989
14987
14984.6
14981.8
14978.6
14974.9
14970.6
14965.6
14959.9
14953.3
14945.9
14937.3
14927.7
14916.7
14904.2
14890.2
14874.3
14856.6
14836.7
14814.5
14789.7
14762.1
14731.6
14697.8
14660.5
14619.5
14574.5
14525.2
14471.3
14412.6
14348.8
14279.6
14204.8
14124.1
14037.2
13943.9
13844
13737.3
13623.6
13502.8
13374.6
13239
13096
12945.4
12787.3
12621.7
12448.7
12268.4
12080.9
11886.4
11685.2
11477.5
11263.8
11044.2
10819.3
10589.4
10355.1
10116.8
9875.18
9630.67
9383.89
9135.46
8886
8636.15
8386.53
8137.81
7890.61
7645.57
7403.31
7164.46
6929.59
6699.27
6474.05
6254.45
6040.93
5833.96
5633.93
5441.22
5256.16
5079.04
4910.11
4749.56
4597.57
4454.25
4319.68
4193.91
4076.94
3968.72
3869.19
3778.25
3695.75
3621.54
3555.42
3497.18
3446.59
3403.38
3367.28
3338
3315.25
3298.71
3288.07
3282.99
3283.14
3288.18
3297.78
3311.58
3329.22
3350.33
3374.46
3401.12
3429.64
3459.06
3487.82
3513.33
3530.95
3532.26
3501.74
3410.62
3205.38
2786.35
1967.67
518.982
2435
15000
15000
14999.9
14999.8
14999.6
14999.4
14999.2
14998.8
14998.4
14998
14997.4
14996.9
14996.3
14995.7
14995.1
14994.5
14994
14993.5
14993.1
14992.8
14992.6
14992.5
14992.5
14992.5
14992.7
14992.9
14993.2
14993.6
14994
14994.4
14994.9
14995.3
14995.8
14996.2
14996.7
14997.1
14997.4
14997.8
14998.1
14998.4
14998.7
14998.9
14999.1
14999.2
14999.3
14999.4
14999.5
14999.6
14999.6
14999.6
14999.6
14999.6
14999.5
14999.4
14999.3
14999.2
14999
14998.8
14998.6
14998.3
14997.9
14997.4
14996.9
14996.3
14995.5
14994.6
14993.5
14992.3
14990.8
14989
14987
14984.6
14981.9
14978.6
14974.9
14970.6
14965.7
14960
14953.4
14946
14937.5
14927.8
14916.8
14904.4
14890.4
14874.6
14856.8
14837
14814.8
14790
14762.5
14732
14698.3
14661.1
14620.1
14575.1
14525.9
14472.1
14413.4
14349.7
14280.6
14205.8
14125.2
14038.4
13945.2
13845.4
13738.8
13625.2
13504.4
13376.3
13240.8
13097.8
12947.3
12789.3
12623.8
12450.8
12270.5
12083
11888.6
11687.4
11479.7
11265.9
11046.3
10821.3
10591.4
10356.9
10118.5
9876.73
9632.04
9385.06
9136.41
8886.69
8636.55
8386.63
8137.56
7889.99
7644.55
7401.87
7162.55
6927.2
6696.37
6470.61
6250.44
6036.33
5828.73
5628.06
5434.69
5248.94
5071.11
4901.45
4740.16
4587.41
4443.32
4307.98
4181.41
4063.64
3954.62
3854.28
3762.52
3679.22
3604.2
3537.28
3478.25
3426.86
3382.88
3346.01
3315.99
3292.51
3275.25
3263.91
3258.15
3257.65
3262.07
3271.06
3284.29
3301.39
3321.98
3345.63
3371.85
3399.96
3429.02
3457.49
3482.79
3500.33
3501.8
3471.86
3382.13
3179.96
2767.62
1964.03
523.538
2435
15000
15000
14999.9
14999.8
14999.6
14999.4
14999.1
14998.7
14998.2
14997.7
14997.1
14996.5
14995.8
14995.1
14994.4
14993.7
14993.1
14992.6
14992.1
14991.7
14991.5
14991.3
14991.3
14991.3
14991.5
14991.8
14992.1
14992.5
14992.9
14993.4
14994
14994.5
14995
14995.5
14996
14996.5
14997
14997.4
14997.8
14998.1
14998.4
14998.7
14998.9
14999.1
14999.2
14999.4
14999.4
14999.5
14999.6
14999.6
14999.6
14999.5
14999.5
14999.4
14999.3
14999.2
14999
14998.8
14998.6
14998.3
14997.9
14997.4
14996.9
14996.3
14995.5
14994.6
14993.5
14992.3
14990.8
14989.1
14987
14984.7
14981.9
14978.7
14975
14970.7
14965.7
14960.1
14953.5
14946.1
14937.6
14927.9
14917
14904.6
14890.6
14874.8
14857.1
14837.3
14815.1
14790.4
14763
14732.5
14698.8
14661.7
14620.7
14575.8
14526.6
14472.9
14414.3
14350.7
14281.6
14207
14126.4
14039.7
13946.6
13846.9
13740.4
13626.8
13506.1
13378.1
13242.7
13099.8
12949.4
12791.5
12626
12453
12272.8
12085.3
11890.9
11689.7
11482
11268.2
11048.5
10823.5
10593.5
10358.9
10120.4
9878.44
9633.56
9386.37
9137.47
8887.48
8637.04
8386.79
8137.36
7889.39
7643.53
7400.4
7160.59
6924.72
6693.35
6467.01
6246.23
6031.49
5823.23
5621.88
5427.79
5241.31
5062.73
4892.29
4730.21
4576.65
4431.74
4295.56
4168.15
4049.52
3939.64
3838.44
3745.81
3661.64
3585.76
3517.98
3458.09
3405.87
3361.05
3323.36
3292.53
3268.26
3250.23
3238.14
3231.66
3230.45
3234.19
3242.54
3255.15
3271.66
3291.69
3314.82
3340.56
3368.23
3396.89
3425.03
3450.09
3467.53
3469.12
3439.68
3351.11
3151.11
2742.22
1941.59
508.349
2435
15000
15000
14999.9
14999.7
14999.6
14999.3
14999
14998.6
14998.1
14997.5
14996.8
14996.1
14995.4
14994.6
14993.8
14993
14992.3
14991.7
14991.2
14990.7
14990.4
14990.2
14990.1
14990.2
14990.3
14990.6
14991
14991.4
14991.9
14992.5
14993
14993.6
14994.2
14994.8
14995.4
14996
14996.5
14997
14997.4
14997.8
14998.1
14998.4
14998.7
14998.9
14999.1
14999.3
14999.4
14999.5
14999.5
14999.5
14999.5
14999.5
14999.5
14999.4
14999.3
14999.2
14999
14998.8
14998.6
14998.3
14997.9
14997.4
14996.9
14996.3
14995.5
14994.6
14993.6
14992.3
14990.8
14989.1
14987.1
14984.7
14981.9
14978.7
14975
14970.7
14965.8
14960.1
14953.6
14946.2
14937.7
14928.1
14917.2
14904.8
14890.8
14875.1
14857.4
14837.6
14815.5
14790.8
14763.4
14733
14699.4
14662.3
14621.4
14576.6
14527.5
14473.8
14415.3
14351.7
14282.8
14208.2
14127.7
14041.1
13948.1
13848.5
13742.1
13628.6
13508
13380.1
13244.8
13102
12951.7
12793.8
12628.3
12455.5
12275.3
12087.9
11893.4
11692.3
11484.6
11270.7
11051
10825.9
10595.8
10361.1
10122.4
9880.3
9635.23
9387.81
9138.66
8888.39
8637.63
8387.03
8137.21
7888.84
7642.53
7398.91
7158.6
6922.18
6690.23
6463.28
6241.86
6026.45
5817.5
5615.42
5420.58
5233.33
5053.95
4882.69
4719.77
4565.36
4419.57
4282.51
4154.2
4034.67
3923.87
3821.75
3728.21
3643.12
3566.32
3497.63
3436.84
3383.71
3338
3299.45
3267.76
3242.64
3223.8
3210.9
3203.64
3201.69
3204.71
3212.36
3224.3
3240.18
3259.61
3282.19
3307.4
3334.59
3362.83
3390.61
3415.4
3432.71
3434.37
3405.33
3317.61
3118.85
2710.65
1906.54
499.801
2408.38
15000
14999.9
14999.9
14999.7
14999.5
14999.3
14998.9
14998.5
14998
14997.3
14996.6
14995.8
14995
14994.2
14993.3
14992.5
14991.7
14990.9
14990.3
14989.8
14989.4
14989.2
14989.1
14989.1
14989.2
14989.5
14989.9
14990.3
14990.9
14991.5
14992.1
14992.8
14993.5
14994.2
14994.8
14995.4
14996
14996.5
14997
14997.5
14997.9
14998.2
14998.5
14998.8
14999
14999.2
14999.3
14999.4
14999.5
14999.5
14999.5
14999.5
14999.5
14999.4
14999.3
14999.2
14999
14998.8
14998.6
14998.3
14997.9
14997.5
14996.9
14996.3
14995.5
14994.6
14993.6
14992.3
14990.8
14989.1
14987.1
14984.7
14982
14978.8
14975.1
14970.8
14965.9
14960.2
14953.8
14946.3
14937.9
14928.3
14917.4
14905
14891.1
14875.4
14857.7
14838
14815.9
14791.3
14763.9
14733.6
14700
14662.9
14622.2
14577.4
14528.3
14474.7
14416.3
14352.8
14284
14209.5
14129.1
14042.6
13949.7
13850.2
13743.9
13630.5
13510
13382.2
13247
13104.3
12954
12796.2
12630.9
12458.1
12277.9
12090.5
11896.1
11695
11487.3
11273.4
11053.6
10828.4
10598.2
10363.5
10124.6
9882.32
9637.05
9389.4
9139.98
8889.41
8638.33
8387.36
8137.15
7888.34
7641.56
7397.44
7156.59
6919.6
6687.05
6459.46
6237.37
6021.26
5811.58
5608.74
5413.12
5225.05
5044.83
4872.71
4708.91
4553.6
4406.9
4268.9
4139.66
4019.17
3907.42
3804.33
3709.82
3623.76
3546
3476.34
3414.59
3360.52
3313.88
3274.4
3241.8
3215.8
3196.08
3182.34
3174.26
3171.51
3173.75
3180.67
3191.9
3207.11
3225.9
3247.88
3272.53
3299.21
3326.98
3354.37
3378.86
3396.01
3397.71
3369.05
3282.18
3084.92
2678.91
1876.6
494.836
2405.62
15000
14999.9
14999.9
14999.7
14999.5
14999.2
14998.9
14998.4
14997.9
14997.2
14996.5
14995.7
14994.8
14993.9
14992.9
14992
14991.1
14990.3
14989.6
14989.1
14988.6
14988.3
14988.1
14988.1
14988.3
14988.5
14988.9
14989.4
14990
14990.6
14991.3
14992
14992.8
14993.5
14994.2
14994.9
14995.5
14996.1
14996.7
14997.2
14997.6
14998
14998.3
14998.6
14998.9
14999.1
14999.2
14999.3
14999.4
14999.5
14999.5
14999.5
14999.5
14999.4
14999.3
14999.2
14999
14998.8
14998.6
14998.3
14997.9
14997.5
14996.9
14996.3
14995.5
14994.7
14993.6
14992.3
14990.9
14989.2
14987.1
14984.8
14982
14978.9
14975.2
14970.9
14966
14960.3
14953.9
14946.5
14938
14928.4
14917.6
14905.2
14891.3
14875.6
14858
14838.3
14816.3
14791.7
14764.4
14734.1
14700.6
14663.6
14622.9
14578.2
14529.2
14475.7
14417.4
14354
14285.3
14210.9
14130.6
14044.2
13951.4
13852
13745.8
13632.6
13512.2
13384.5
13249.3
13106.7
12956.6
12798.8
12633.6
12460.8
12280.7
12093.4
11899
11697.9
11490.1
11276.2
11056.4
10831.2
10600.9
10366
10127
9884.51
9639.02
9391.13
9141.44
8890.56
8639.13
8387.79
8137.17
7887.91
7640.65
7396
7154.6
6917.01
6683.83
6455.58
6232.8
6015.96
5805.51
5601.88
5405.44
5216.52
5035.43
4862.42
4697.7
4541.45
4393.8
4254.83
4124.6
4003.12
3890.36
3786.27
3690.75
3603.68
3524.9
3454.24
3391.48
3336.42
3288.79
3248.34
3214.79
3187.86
3167.23
3152.59
3143.64
3140.05
3141.49
3147.62
3158.11
3172.6
3190.72
3212.05
3236.11
3262.24
3289.53
3316.49
3340.66
3357.61
3359.35
3331.1
3245.32
3050.55
2650.6
1867.63
495.063
2434.97
15000
14999.9
14999.9
14999.7
14999.5
14999.2
14998.9
14998.4
14997.9
14997.2
14996.4
14995.6
14994.7
14993.7
14992.7
14991.7
14990.8
14989.9
14989.2
14988.5
14988
14987.6
14987.4
14987.4
14987.5
14987.7
14988.1
14988.6
14989.2
14989.8
14990.6
14991.3
14992.1
14992.9
14993.7
14994.4
14995.1
14995.8
14996.4
14996.9
14997.4
14997.8
14998.2
14998.5
14998.7
14999
14999.1
14999.3
14999.4
14999.4
14999.5
14999.5
14999.4
14999.4
14999.3
14999.2
14999
14998.8
14998.6
14998.3
14997.9
14997.5
14996.9
14996.3
14995.6
14994.7
14993.6
14992.4
14990.9
14989.2
14987.2
14984.8
14982.1
14978.9
14975.2
14971
14966.1
14960.5
14954
14946.6
14938.2
14928.6
14917.8
14905.5
14891.6
14876
14858.4
14838.7
14816.7
14792.2
14765
14734.7
14701.3
14664.4
14623.7
14579.1
14530.2
14476.8
14418.6
14355.3
14286.6
14212.3
14132.2
14045.9
13953.2
13853.9
13747.8
13634.7
13514.4
13386.8
13251.8
13109.3
12959.2
12801.6
12636.4
12463.7
12283.7
12096.4
11902.1
11700.9
11493.2
11279.2
11059.4
10834.1
10603.7
10368.6
10129.5
9886.85
9641.15
9393.01
9143.04
8891.85
8640.07
8388.33
8137.28
7887.56
7639.8
7394.62
7152.63
6914.44
6680.6
6451.67
6228.17
6010.57
5799.34
5594.89
5397.6
5207.8
5025.81
4851.87
4686.2
4528.98
4380.34
4240.36
4109.11
3986.6
3872.8
3767.66
3671.09
3582.97
3503.14
3431.42
3367.63
3311.53
3262.88
3221.42
3186.88
3158.96
3137.38
3121.81
3111.95
3107.48
3108.07
3113.38
3123.08
3136.82
3154.23
3174.89
3198.31
3223.86
3250.62
3277.14
3300.95
3317.7
3319.48
3291.71
3207.28
3015.65
2622.65
1853.02
497.589
2435
15000
14999.9
14999.9
14999.7
14999.5
14999.3
14998.9
14998.4
14997.9
14997.2
14996.4
14995.6
14994.6
14993.7
14992.6
14991.6
14990.6
14989.7
14988.9
14988.2
14987.6
14987.2
14986.9
14986.8
14986.9
14987.1
14987.5
14987.9
14988.5
14989.2
14990
14990.8
14991.6
14992.4
14993.2
14994
14994.7
14995.4
14996.1
14996.6
14997.2
14997.6
14998
14998.4
14998.6
14998.9
14999.1
14999.2
14999.3
14999.4
14999.4
14999.4
14999.4
14999.4
14999.3
14999.2
14999
14998.8
14998.6
14998.3
14997.9
14997.5
14997
14996.3
14995.6
14994.7
14993.6
14992.4
14990.9
14989.2
14987.2
14984.9
14982.1
14979
14975.3
14971.1
14966.2
14960.6
14954.1
14946.8
14938.4
14928.8
14918
14905.7
14891.9
14876.3
14858.8
14839.1
14817.2
14792.7
14765.5
14735.4
14702
14665.2
14624.6
14580
14531.2
14477.9
14419.8
14356.6
14288
14213.9
14133.8
14047.6
13955
13855.9
13749.9
13636.9
13516.8
13389.3
13254.4
13112
12962
12804.5
12639.4
12466.8
12286.8
12099.6
11905.3
11704.1
11496.4
11282.4
11062.5
10837.1
10606.6
10371.5
10132.2
9889.36
9643.43
9395.04
9144.78
8893.26
8641.12
8388.99
8137.5
7887.3
7639.03
7393.3
7150.72
6911.9
6677.39
6447.76
6223.51
6005.14
5793.1
5587.81
5389.64
5198.95
5016.02
4841.13
4674.48
4516.26
4366.59
4225.58
4093.28
3969.7
3854.83
3748.61
3650.95
3561.74
3480.82
3408.02
3343.15
3285.98
3236.27
3193.76
3158.18
3129.25
3106.68
3090.14
3079.34
3073.95
3073.64
3078.1
3086.98
3099.93
3116.59
3136.54
3159.3
3184.24
3210.45
3236.48
3259.91
3276.44
3278.27
3251.02
3168.02
2979.67
2593.7
1839.41
500.053
2435
15000
14999.9
14999.9
14999.7
14999.5
14999.3
14998.9
14998.5
14997.9
14997.3
14996.5
14995.7
14994.7
14993.8
14992.7
14991.7
14990.7
14989.7
14988.9
14988.1
14987.5
14987
14986.7
14986.5
14986.5
14986.7
14987.1
14987.5
14988.1
14988.8
14989.5
14990.3
14991.2
14992
14992.8
14993.7
14994.4
14995.2
14995.8
14996.4
14997
14997.5
14997.9
14998.3
14998.6
14998.8
14999
14999.2
14999.3
14999.4
14999.4
14999.4
14999.4
14999.4
14999.3
14999.2
14999
14998.8
14998.6
14998.3
14997.9
14997.5
14997
14996.3
14995.6
14994.7
14993.7
14992.4
14991
14989.3
14987.3
14984.9
14982.2
14979
14975.4
14971.2
14966.3
14960.7
14954.3
14946.9
14938.6
14929
14918.2
14906
14892.2
14876.6
14859.2
14839.6
14817.7
14793.3
14766.1
14736
14702.7
14666
14625.5
14581
14532.3
14479.1
14421.1
14358
14289.5
14215.5
14135.5
14049.4
13957
13858
13752.1
13639.2
13519.2
13391.9
13257.1
13114.8
12964.9
12807.5
12642.5
12470
12290.1
12102.9
11908.6
11707.5
11499.8
11285.8
11065.8
10840.4
10609.8
10374.5
10135.1
9892.01
9645.87
9397.22
9146.67
8894.82
8642.31
8389.77
8137.84
7887.15
7638.35
7392.06
7148.88
6909.41
6674.22
6443.87
6218.86
5999.7
5786.83
5580.68
5381.62
5190
5006.12
4830.25
4662.6
4503.35
4352.64
4210.57
4077.19
3952.52
3836.54
3729.21
3630.44
3540.1
3458.06
3384.15
3318.16
3259.89
3209.08
3165.49
3128.85
3098.88
3075.27
3057.73
3045.95
3039.6
3038.38
3041.94
3049.97
3062.1
3077.97
3097.18
3119.25
3143.55
3169.17
3194.69
3217.72
3234.01
3235.87
3209.12
3127.49
2942.03
2561.37
1814.39
497.428
2435
15000
15000
14999.9
14999.8
14999.6
14999.3
14999
14998.6
14998
14997.4
14996.7
14995.9
14994.9
14994
14993
14991.9
14990.9
14989.9
14989
14988.2
14987.6
14987
14986.7
14986.5
14986.5
14986.6
14986.9
14987.3
14987.9
14988.5
14989.3
14990.1
14990.9
14991.8
14992.6
14993.4
14994.2
14995
14995.7
14996.3
14996.9
14997.4
14997.8
14998.2
14998.5
14998.7
14999
14999.1
14999.3
14999.3
14999.4
14999.4
14999.4
14999.4
14999.3
14999.2
14999
14998.8
14998.6
14998.3
14997.9
14997.5
14997
14996.3
14995.6
14994.7
14993.7
14992.4
14991
14989.3
14987.3
14985
14982.3
14979.1
14975.5
14971.3
14966.4
14960.8
14954.4
14947.1
14938.8
14929.3
14918.5
14906.3
14892.5
14877
14859.6
14840
14818.2
14793.9
14766.8
14736.7
14703.5
14666.8
14626.4
14582
14533.4
14480.3
14422.4
14359.4
14291.1
14217.1
14137.3
14051.4
13959
13860.1
13754.4
13641.7
13521.8
13394.5
13259.9
13117.7
12968
12810.6
12645.7
12473.3
12293.5
12106.3
11912.1
11711
11503.3
11289.3
11069.3
10843.7
10613
10377.7
10138.1
9894.82
9648.45
9399.54
9148.69
8896.51
8643.62
8390.67
8138.29
7887.11
7637.78
7390.91
7147.12
6906.99
6671.11
6440.03
6214.25
5994.28
5780.57
5573.54
5373.57
5181.01
4996.17
4819.29
4650.62
4490.33