<?xml version="1.0"?>
<VTKFile type="PolyData" version="0.1" byte_order="LittleEndian">
  <PolyData>
    <Piece NumberOfPoints="15000" NumberOfVerts="15000" NumberOfLines="0" NumberOfStrips="0" NumberOfPolys="0">
      <Points>
        <DataArray type="Float32" NumberOfComponents="3" format="ascii">
0.630072 0.0125624 0
-0.629014 0.00280066 0
0.617923 -0.00391202 0
0.632656 -0.00398562 0
-0.564945 0.00934234 0
-0.383338 0.00311497 0
0.162984 -0.0331327 0
-0.543166 -0.00118431 0
0.169775 -0.0341043 0
-0.0749203 0.011982 0
0.490281 -0.0228522 0
0.608073 0.0113413 0
-0.460694 0.012866 0
-0.279156 -0.0451825 0
-0.659499 0.00336544 0
0.539312 0.0194366 0
-0.133527 -0.00707315 0
0.646247 0.00145794 0
0.362299 0.0032094 0
-0.61287 0.00421594 0
-0.655376 0.00778453 0
0.573165 0.0116768 0
-0.621732 0.00303838 0
0.615185 -0.00128172 0
0.398178 -0.0234641 0
0.449582 0.0167393 0
-0.648905 -0.0134141 0
0.63834 -0.0066554 0
-0.475112 0.0368983 0
-0.627579 0.0108662 0
-0.52511 0.0185431 0
-0.503678 -0.024935 0
0.627298 0.000671636 0
0.625811 -0.00240096 0
0.15501 0.00661688 0
0.640117 -0.00349955 0
0.29683 0.00221952 0
-0.641644 0.0032383 0
-0.547119 -0.00788367 0
-0.662089 -0.00436638 0
0.445479 0.0166066 0
0.506219 0.0113119 0
-0.613366 -0.00476762 0
0.623839 0.00048948 0
0.650485 0.00106917 0
-0.560513 0.00940579 0
0.61679 0.00681807 0
0.306112 -0.0260476 0
0.602573 -0.000342984 0
0.618464 -0.00100064 0
0.248084 0.0319052 0
-0.618486 -0.00258145 0
-0.378575 0.0119847 0
0.61296 0.00335601 0
-0.606803 0.00185592 0
-0.65617 0.00446141 0
0.630828 -0.00249495 0
0.244708 0.0157888 0
0.513675 0.0130189 0
0.6422 -0.00903697 0
0.559612 0.00850024 0
0.62865 0.00202132 0
0.125893 -0.0542052 0
0.646068 -0.00341551 0
-0.171044 0.0203619 0
-0.638117 0.00145143 0
0.611672 -0.00206661 0
0.635294 -0.00238028 0
0.654573 0.00538266 0
0.438496 0.00196219 0
-0.619359 0.00362754 0
0.615617 0.00359624 0
0.256191 -0.00122518 0
0.324414 0.0100859 0
0.345519 0.00819558 0
-0.624195 -0.00445594 0
0.582221 0.0203472 0
-0.610201 0.00608377 0
0.591094 0.0137871 0
-0.64736 0.00246475 0
-0.33984 -0.0565923 0
-0.636837 0.00553104 0
0.579396 0.00602058 0
-0.615894 0.000414982 0
0.644209 -0.00853852 0
-0.628684 0.00381978 0
0.653123 -0.00812181 0
-0.31494 -0.0132868 0
-0.269551 0.0333509 0
-0.601613 -0.0101378 0
0.613544 0.0096303 0
-0.610782 -0.0014763 0
0.605589 -0.00339133 0
-0.403163 0.0290278 0
-0.0740749 -0.0430314 0
-0.563498 0.00687247 0
0.611181 0.0132282 0
-0.625981 0.00318752 0
-0.645132 0.00988748 0
-0.654081 -0.00135873 0
-0.589997 -0.0114243 0
-0.616288 -0.00844515 0
0.649494 -0.00151977 0
-0.267796 -0.0324343 0
0.653847 -0.00170216 0
0.466948 0.0174612 0
0.413318 0.0105824 0
12.7291 13.1408 0
0.587592 0.00744992 0
-0.623681 -0.00692087 0
-0.533553 0.0337033 0
-0.633637 0.00326675 0
-0.546348 0.0157594 0
20.7952 26.345 0
0.49944 0.0122641 0
-0.623038 0.00369896 0
-0.637545 0.00558802 0
8.87463 17.6422 0
-0.624226 0.00222013 0
-0.0643628 -0.042564 0
0.63579 -0.00268506 0
-0.603528 -0.0061766 0
0.356061 -0.0021191 0
-0.571166 0.0104081 0
0.621606 -0.0012509 0
0.597751 -0.00195947 0
0.158563 0.0280466 0
0.660236 0.00667706 0
-0.571308 -0.00989571 0
0.460458 -0.00155849 0
0.649775 -0.00551312 0
0.635754 -0.00151418 0
-0.657995 0.00143493 0
-0.589655 0.00544499 0
0.627745 -0.00283791 0
0.620462 -0.00241354 0
0.610787 -0.00378779 0
-0.171413 0.0033956 0
0.429048 -0.0209135 0
0.457771 -0.0181762 0
0.478719 -0.0217951 0
0.567259 0.0142807 0
0.623169 -0.0059745 0
-0.125924 -0.018196 0
-0.622931 0.00810958 0
0.292528 -0.0267156 0
-0.499184 0.0360828 0
-0.662498 0.00275895 0
-0.344838 -0.0206982 0
-0.628342 0.00441371 0
0.51938 0.0128611 0
0.616397 0.00191709 0
-0.186272 -0.0157816 0
0.514919 -0.0166975 0
0.628299 0.0167839 0
0.616755 0.00536766 0
0.409056 -0.0151167 0
-0.625572 0.00336342 0
-0.355097 -0.0110201 0
0.640574 -0.00100683 0
0.434259 -0.0046238 0
-0.553626 -0.00532784 0
-0.61933 0.00290556 0
-0.635148 0.00289919 0
-0.159824 0.0112 0
0.533519 -0.0128159 0
0.578289 -0.0102796 0
0.579198 0.00698694 0
0.482981 0.0123696 0
-0.309369 -0.0016552 0
0.657784 -0.00825196 0
-0.611342 0.00308479 0
-0.161693 -0.00989006 0
0.628252 0.00583233 0
-0.16316 -0.00778378 0
-0.413288 0.0194828 0
-0.61054 0.00207436 0
-0.463952 -0.0139238 0
-0.617952 -0.00443104 0
-0.629746 -0.00980564 0
0.60569 -0.000756505 0
-0.652456 0.00929951 0
-0.619086 0.00777002 0
0.635325 0.00724539 0
0.634931 -0.00207631 0
0.498487 -0.0318156 0
0.659794 -0.00591761 0
0.659064 1.96779e-05 0
0.632186 -0.00632124 0
0.10353 0.080609 0
0.646637 -0.00630232 0
0.549624 -0.0155529 0
-0.373018 -0.0228762 0
0.592763 0.00922357 0
-0.53982 0.00821211 0
0.628313 0.000785733 0
-0.515307 0.017194 0
-0.56321 0.00691059 0
-0.620278 0.00450291 0
0.619584 0.00701368 0
-0.543015 0.0365255 0
0.634306 0.00381017 0
0.581952 -0.0101992 0
-0.176352 -0.0128875 0
0.661043 -0.00829629 0
-0.612831 -0.0124402 0
46.7583 48.9113 0
0.241644 -0.00952605 0
-0.548361 0.0152734 0
-0.435438 -0.0159314 0
0.606123 -0.000139923 0
-0.267856 -0.0326248 0
0.521522 -0.00502224 0
-0.536769 0.0158028 0
-0.388466 -0.0241204 0
-0.631189 0.00858557 0
-0.653399 0.0112683 0
0.625988 -0.00110226 0
-0.624332 -0.0018978 0
-0.0952274 0.0344325 0
-0.559285 0.019264 0
-0.650499 0.00636289 0
-0.634814 -0.0121351 0
0.656801 -0.00528476 0
0.161632 0.0270888 0
-0.612505 0.00332542 0
0.645616 0.00111012 0
0.631652 -0.00181874 0
-0.56756 0.0148987 0
-0.61689 -0.000861271 0
-0.626589 -0.00619633 0
0.615287 0.00592559 0
0.31418 0.0344362 0
-0.0906194 0.017393 0
-0.649742 0.00581265 0
-0.524898 0.0070921 0
0.491259 -0.0310213 0
-0.503614 -0.00539488 0
-0.626636 0.00358462 0
0.311715 -0.00468088 0
0.643973 -0.000974638 0
-0.438784 -0.00796349 0
-0.631522 0.00416117 0
-0.420731 -0.0179937 0
0.358341 0.0111996 0
0.623635 0.00823237 0
-0.617339 0.010089 0
0.628858 -0.00191305 0
0.654854 0.004801 0
0.448368 0.0220293 0
0.439858 0.00867691 0
-0.590094 0.00727341 0
0.614056 -0.00519751 0
-0.270944 -0.0115561 0
-0.563293 0.0117992 0
0.608396 -0.000747768 0
-0.561418 0.0112006 0
0.533738 0.0146284 0
0.200475 0.0321858 0
0.357594 0.00123903 0
0.651493 0.000593458 0
-0.599919 0.005601 0
0.132534 -0.012012 0
0.11917 -0.0377965 0
-0.480595 0.00539217 0
-0.620568 0.00113683 0
-0.622102 0.0021909 0
-0.616034 -0.00214308 0
0.621089 -0.00218107 0
0.621355 -0.0019936 0
0.633687 -0.00205895 0
-0.630632 -0.00477397 0
0.440293 0.0060596 0
-34.4406 96.1153 0
-0.656954 0.0061655 0
-0.636178 0.00268434 0
0.606295 -0.00112995 0
-0.605929 0.00215989 0
0.603746 0.00941735 0
-0.621642 -0.00314918 0
-0.570634 -0.00129591 0
-0.258575 -0.0333391 0
-0.606987 0.00247312 0
0.605424 -0.00298744 0
-0.539201 0.0152333 0
-0.655152 -0.00629283 0
-0.261042 0.031309 0
-0.623022 0.00467257 0
-0.629967 0.00448662 0
0.542055 -0.00478204 0
-0.25336 0.00965455 0
0.621103 -0.00214594 0
0.639672 -0.00501332 0
0.58091 0.0291722 0
0.643271 0.00476818 0
0.619652 0.008434 0
0.663442 0.00528056 0
-0.3517 0.0290459 0
-0.57309 0.00171373 0
-0.654763 0.0012714 0
0.656669 0.000568476 0
-0.117361 0.00893034 0
0.615054 -0.00323101 0
0.593736 0.00310702 0
0.635134 -0.00181601 0
0.116319 0.0171172 0
-0.365939 0.0413191 0
0.577155 0.00939922 0
-0.102681 -0.00284206 0
-0.35259 0.0156054 0
-0.538573 0.0171309 0
0.623278 0.00969043 0
-0.408122 0.0194214 0
0.575607 -0.00894459 0
0.451452 -0.00894291 0
-0.645565 0.00821135 0
0.511259 -0.0239761 0
0.655516 -0.0086957 0
0.603154 -0.00454703 0
0.628654 0.0105279 0
-0.633939 0.00678238 0
-0.171337 0.0240744 0
0.625952 0.00368225 0
0.636482 -0.0020858 0
0.447819 0.0584866 0
-0.600223 -0.00162221 0
-0.585894 0.00683805 0
0.654102 7.51124e-05 0
-0.60876 -0.00564954 0
0.611805 0.00309081 0
0.635713 -0.00433585 0
0.284769 -0.0360889 0
0.645896 0.00623616 0
-0.643599 0.00405606 0
-0.553168 -0.00198331 0
-0.41171 -0.00585387 0
0.079422 -0.0136325 0
0.113331 -0.0858506 0
-0.606179 0.00269344 0
0.336451 -0.0505816 0
-0.0856291 0.0756783 0
-0.63924 0.00848373 0
-0.452441 0.0194798 0
-0.635483 0.00557469 0
-0.261565 -0.0185857 0
0.637368 0.00978062 0
-0.457599 0.0234418 0
-0.639229 -0.00040935 0
-21.4223 26.1462 0
0.629915 -0.00976434 0
0.63058 -0.00228627 0
-0.510314 0.0199243 0
0.61585 0.00364891 0
0.610079 -0.00157512 0
inf -inf 0
0.207749 0.0213492 0
-0.628089 0.00491661 0
-0.49376 -0.00529802 0
0.656496 0.00459477 0
17.6048 -35.5108 0
0.597322 0.00844681 0
-0.624097 -0.00966351 0
-0.362216 -0.000124159 0
-0.625294 -0.00525851 0
-0.627754 0.00972274 0
0.617519 -0.00252408 0
-0.622463 -0.00256438 0
-0.578913 0.013674 0
0.481622 0.018125 0
-0.628429 -0.000226935 0
-0.527856 0.0214174 0
-0.550242 0.0118225 0
0.653996 0.0064795 0
0.576152 -0.0120209 0
-0.512142 0.0380455 0
0.643257 -0.00369295 0
-0.607418 -0.00787269 0
-0.554047 -0.00629034 0
-0.635135 0.00139887 0
74.2858 -82.0282 0
-0.618368 -0.00801284 0
0.62027 0.00456763 0
-0.632258 0.00418301 0
-0.623291 0.0024879 0
-0.161031 0.021463 0
0.591469 0.0295855 0
-0.228625 0.0611579 0
0.150314 0.0359764 0
-0.632621 0.00525641 0
-0.158553 0.00409516 0
-0.632492 -0.00225118 0
-0.633476 0.00787383 0
0.601163 -0.00867285 0
0.538204 0.0154128 0
-0.563432 0.00851574 0
0.56563 0.00587587 0
0.493788 0.00168264 0
-0.603341 0.0023209 0
-0.373002 -0.0113965 0
0.422878 -0.028002 0
-0.598396 0.000356765 0
0.563661 -0.0158908 0
0.228309 -0.00724498 0
-0.595493 -0.00265276 0
0.529909 -0.00215366 0
0.581228 -0.00448862 0
0.644994 -0.00856328 0
0.631033 -0.00299059 0
0.638696 -0.000634858 0
0.61306 0.0101086 0
-0.604306 0.00225411 0
0.479421 0.0158184 0
-0.550702 -0.00721064 0
0.271206 0.0371905 0
-0.617682 0.00269799 0
-0.269164 -0.00924323 0
-0.566622 0.0198004 0
0.197486 -0.0224244 0
-0.64148 0.00457654 0
0.60642 -0.00202818 0
-0.142241 0.0365927 0
0.242115 0.0202302 0
-0.646452 0.00423972 0
0.61235 0.00164851 0
0.630284 -0.00171538 0
0.638474 0.0143366 0
0.652186 -0.00789373 0
-0.604857 0.00287301 0
-0.639644 0.00306142 0
0.631495 -0.00252708 0
-0.509387 0.028577 0
0.275936 0.0389497 0
-0.626777 0.00340317 0
0.615053 0.00807191 0
[...]
      <PointData Scalars="T">
        <DataArray type="Float32" Name="T" format="ascii" NumberOfComponents="1">
14162.3
14380.7
14333.1
14333.1
14380.7
14380.7
14333.1
14210.6
14333.1
14380.7
14333.1
14162.3
14380.7
14210.6
14380.7
14162.3
14210.6
13409.9
14162.3
14380.7
14380.7
14162.3
14380.7
14333.1
14333.1
14162.3
14210.6
14333.1
14380.7
14380.7
14380.7
14210.6
13478.2
14333.1
14162.3
14333.1
14162.3
14380.7
14210.6
14210.6
14162.3
14162.3
14210.6
13977
13999.2
14380.7
14162.3
14333.1
14333.1
14333.1
14162.3
14210.6
14380.7
14162.3
13531.6
14380.7
14333.1
14162.3
14162.3
14333.1
14162.3
14162.3
14333.1
14333.1
14380.7
14035.4
14333.1
14333.1
14162.3
14162.3
14380.7
14162.3
14333.1
14162.3
14162.3
14210.6
14162.3
14380.7
14162.3
14380.7
14210.6
14380.7
14162.3
12797.7
14333.1
14380.7
14333.1
14210.6
14380.7
14210.6
14162.3
14210.6
14333.1
14380.7
14210.6
14380.7
14162.3
14380.7
14380.7
14210.6
14210.6
14210.6
14333.1
14210.6
14333.1
14162.3
14162.3
14162.3
14162.3
14210.6
14380.7
14380.7
14380.7
14162.3
14162.3
14380.7
14380.7
14162.3
14380.7
14210.6
14333.1
14210.6
14333.1
14380.7
14333.1
14333.1
14162.3
14162.3
14210.6
14333.1
14333.1
14333.1
14199.2
14380.7
14333.1
14333.1
14333.1
14380.7
14333.1
14333.1
14333.1
14162.3
14333.1
14210.6
14380.7
14333.1
14380.7
14380.7
14210.6
14380.7
14162.3
14162.3
14210.6
14333.1
14162.3
14162.3
14333.1
14380.7
14210.6
14333.1
14333.1
14210.6
14380.7
14380.7
14380.7
14333.1
14333.1
14162.3
14162.3
14210.6
14333.1
14380.7
14210.6
14162.3
14210.6
14380.7
14380.7
14210.6
14210.6
14210.6
14333.1
14380.7
14380.7
14162.3
14333.1
14333.1
14333.1
13799.7
14333.1
14162.3
14333.1
14333.1
14210.6
14162.3
14380.7
14486.6
14380.7
14380.7
14380.7
14162.3
14380.7
14162.3
14333.1
14210.6
14333.1
14210.6
14162.3
14333.1
14380.7
14210.6
14333.1
14210.6
14333.1
14380.7
14210.6
14380.7
14380.7
14333.1
14210.6
14380.7
14380.7
14380.7
14210.6
14333.1
14162.3
14380.7
13786.7
14333.1
14380.7
14210.6
14210.6
14162.3
14162.3
14380.7
14380.7
14380.7
14333.1
14210.6
14380.7
14333.1
14333.1
14210.6
14380.7
14210.6
14162.3
14162.3
14380.7
14333.1
14162.3
14162.3
14162.3
14380.7
14333.1
14210.6
14380.7
14333.1
14380.7
14162.3
14162.3
13805.3
13360.6
14380.7
14333.1
14333.1
14380.7
13656.2
14380.7
14210.6
14333.1
14333.1
14333.1
14210.6
14162.3
14380.7
14380.7
14380.7
14333.1
14380.7
14162.3
14210.6
14210.6
14210.6
14380.7
14333.1
14380.7
14210.6
14380.7
14380.7
14380.7
14333.1
14380.7
14333.1
14333.1
14162.3
14162.3
14162.3
14162.3
14380.7
13576
14056.8
13394.5
14380.7
14333.1
14162.3
14333.1
14162.3
14380.7
14162.3
14210.6
14380.7
14380.7
14162.3
14380.7
14333.1
14333.1
14380.7
14333.1
14333.1
14333.1
14162.3
14380.7
14380.7
14162.3
14333.1
14162.3
14210.6
14380.7
13457.4
14210.6
14162.3
14333.1
14333.1
14162.3
14380.7
14210.6
14210.6
14333.1
14333.1
14380.7
14333.1
14380.7
14380.7
14380.7
14380.7
14210.6
14162.3
14380.7
14210.6
14380.7
14333.1
14333.1
14380.7
14162.3
14333.1
14210.6
14162.3
14380.7
14210.6
14162.3
14333.1
14162.3
14210.6
14210.6
14210.6
14380.7
14333.1
14210.6
14380.7
14162.3
14210.6
14380.7
14380.7
14162.3
14333.1
14380.7
14333.1
14210.6
14210.6
14379.5
14333.1
14210.6
14162.3
14380.7
14380.7
14380.7
14162.3
14380.7
14162.3
14380.7
14380.7
14210.6
14380.7
14333.1
14162.3
14380.7
14162.3
11922.8
14380.7
14210.6
14333.1
13097.5
14333.1
14333.1
14210.6
14333.1
14333.1
14333.1
14333.1
14333.1
14162.3
14380.7
14162.3
14210.6
14162.3
14380.7
14210.6
14380.7
14333.1
14380.7
14333.1
14380.7
14162.3
14380.7
12408.2
14333.1
14162.3
14333.1
14380.7
14380.7
14333.1
14380.7
14162.3
14380.7
14162.3
14233.4
14210.6
14380.7
14380.7
14162.3
12440.7
14380.7
14333.1
13809
14210.6
14210.6
14380.7
14210.6
14162.3
14333.1
14210.6
14162.3
14210.6
14210.6
14333.1
14333.1
14210.6
14380.7
13901.3
14210.6
14333.1
14210.6
14333.1
14380.7
14210.6
14333.1
14162.3
14210.6
14210.6
14380.7
14380.7
14162.3
12588.3
14333.1
14333.1
14162.3
14380.7
14380.7
14380.7
14333.1
14162.3
14210.6
14210.6
14210.6
14380.7
14162.3
14162.3
14333.1
14333.1
14380.7
14162.3
14162.3
14236.7
14380.7
14162.3
14333.1
14210.6
14333.1
14380.7
14380.7
14380.7
14210.6
14210.6
14210.6
14210.6
14210.6
14333.1
14333.1
14333.1
14162.3
14333.1
14162.3
14162.3
14210.6
14162.3
14380.7
14333.1
14162.3
14380.7
14162.3
14380.7
13569.6
14380.7
13415.8
14162.3
14333.1
14162.3
14333.1
14333.1
14333.1
14380.7
14162.3
14162.3
11289.7
14162.3
14321.6
14380.7
14210.6
14333.1
14333.1
14380.7
14380.7
14210.6
14210.6
14210.6
14162.3
14162.3
13012.9
14162.3
14210.6
14380.7
14162.3
14380.7
13427
14162.3
14210.6
14380.7
14333.1
14380.7
14162.3
14162.3
14210.6
14162.3
14210.6
14333.1
13331.3
14380.7
13560.5
14333.1
14210.6
14210.6
13090.7
14380.7
14380.7
14162.3
14333.1
14333.1
14333.1
14162.3
14210.6
13728.2
14210.6
14210.6
13911.1
14162.3
14333.1
14380.7
14162.3
14210.6
12440.7
14162.3
14333.1
14380.7
14162.3
14210.6
14129
14162.3
14333.1
14210.6
14162.3
14380.7
14333.1
14333.1
14162.3
13920.3
14210.6
14210.6
14380.7
14458.7
14162.3
14210.6
14333.1
14210.6
14210.6
14162.3
14333.1
14210.6
14210.6
14380.7
14380.7
14333.1
14333.1
14380.7
14210.6
14210.6
14162.3
14333.1
14380.7
14380.7
14333.1
14333.1
14162.3
14162.3
14380.7
14210.6
14210.6
14210.6
14210.6
14162.3
14380.7
14162.3
14162.3
14210.6
14380.7
14333.1
14333.1
14210.6
14380.7
14333.1
14210.6
14210.6
14380.7
14333.1
14210.6
14380.7
14162.3
14380.7
14380.7
14333.1
14162.3
14380.7
14162.3
14333.1
14380.7
14162.3
13557.4
14380.7
14380.7
14333.1
14333.1
14333.1
14162.3
14162.3
14210.6
14210.6
14380.7
14380.7
14162.3
14380.7
14210.6
13949.3
14162.3
14380.7
14380.7
14380.7
14333.1
14162.3
14162.3
14162.3
14380.7
14333.1
14333.1
13638.5
14380.7
14162.3
14333.1
14162.3
14162.3
14162.3
14380.7
14162.3
14162.3
14333.1
14380.7
14162.3
14380.7
14333.1
14162.3
14333.1
14162.3
14333.1
14380.7
14162.3
14380.7
14162.3
14380.7
14380.7
14380.7
14333.1
14210.6
14162.3
14380.7
14333.1
14162.3
14210.6
14333.1
13600.6
14210.6
12589.3
13430.3
14380.7
14380.7
14333.1
14333.1
14333.1
14333.1
14333.1
14210.6
14162.3
14380.7
14210.6
14333.1
14333.1
14380.7
14480.1
14380.7
14162.3
14380.7
14380.7
14380.7
14210.6
14210.6
14333.1
14380.7
14162.3
14380.7
14210.6
14380.7
14210.6
14210.6
14333.1
14162.3
14333.1
14380.7
14210.6
14380.7
14380.7
14210.6
14380.7
14210.6
14162.3
14380.7
14210.6
14333.1
14333.1
14333.1
14380.7
14380.7
14210.6
14162.3
14210.6
12459.2
14380.7
14210.6
14210.6
14162.3
14333.1
14162.3
13272.8
14333.1
14380.7
14380.7
14333.1
14380.7
14162.3
14380.7
14162.3
14380.7
14210.6
14162.3
14380.7
12427.8
14380.7
14380.7
14333.1
12867.7
14210.6
14162.3
14333.1
11890.6
14162.3
14380.7
14210.6
14210.6
14162.3
14380.7
13617.9
14162.3
14333.1
14333.1
14210.6
14380.7
14162.3
14380.7
14380.7
14333.1
14333.1
14162.3
14333.1
14380.7
14210.6
14162.3
14380.7
14162.3
14162.3
14380.7
14380.7
14162.3
14525.9
14333.1
14333.1
14380.7
14380.7
14333.1
14333.1
14380.7
14210.6
14210.6
14162.3
14162.3
14210.6
14380.7
14380.7
13331.3
14210.6
14333.1
14380.7
14333.1
14380.7
14333.1
14333.1
12606
14333.1
14380.7
14162.3
14333.1
14380.7
14210.6
14162.3
14333.1
14162.3
14162.3
14162.3
14162.3
14380.7
14162.3
14333.1
14210.6
14333.1
14162.3
14380.7
14333.1
14333.1
14162.3
14380.7
14380.7
14210.6
14333.1
14210.6
14333.1
14210.6
14380.7
14380.7
14162.3
14210.6
11871.5
14210.6
14333.1
13214.5
14380.7
14333.1
14162.3
14210.6
14210.6
14333.1
14380.7
14333.1
14333.1
14210.6
14162.3
14210.6
14162.3
14333.1
14162.3
14333.1
14162.3
14162.3
14380.7
14162.3
14333.1
14333.1
14380.7
14333.1
14210.6
14380.7
14210.6
14333.1
14162.3
14380.7
14210.6
14380.7
14333.1
14380.7
14380.7
14333.1
14333.1
14210.6
14162.3
14380.7
13725
14333.1
14380.7
14162.3
14380.7
14210.6
14442.6
14210.6
14333.1
14380.7
14210.6
14380.7
14380.7
14380.7
14210.6
14210.6
14380.7
14380.7
14162.3
14380.7
14333.1
14333.1
14333.1
14333.1
14162.3
14380.7
14333.1
14380.7
14162.3
14380.7
14162.3
12141.4
14210.6
14162.3
14380.7
14333.1
14162.3
14333.1
14210.6
14333.1
14380.7
14333.1
14210.6
14210.6
14162.3
14210.6
14380.7
14380.7
14210.6
14333.1
14162.3
14162.3
14162.3
14210.6
14333.1
14210.6
14333.1
14162.3
14162.3
14162.3
14162.3
14333.1
14333.1
14210.6
14162.3
14162.3
14210.6
14380.7
14333.1
14380.7
13922.5
14380.7
14210.6
14380.7
14210.6
14210.6
14380.7
14162.3
14210.6
14162.3
13568.3
14333.1
14380.7
14162.3
14380.7
14380.7
14162.3
14162.3
14380.7
14333.1
14162.3
14333.1
14333.1
14210.6
14380.7
14210.6
13576
14333.1
14380.7
14333.1
14380.7
14380.7
14333.1
14333.1
14380.7
14162.3
14333.1
14333.1
14333.1
14380.7
14333.1
14162.3
14380.7
14380.7
14380.7
14210.6
14380.7
14333.1
14380.7
14333.1
14210.6
14475.3
14333.1
14162.3
14380.7
14210.6
14210.6
14380.7
14333.1
14162.3
14210.6
14333.1
13958.2
14210.6
14210.6
14333.1
14380.7
12208.5
14333.1
14162.3
14210.6
14380.7
14380.7
14380.7
14162.3
14350
14162.3
13569.6
14380.7
14333.1
14162.3
14162.3
14333.1
14162.3
14210.6
14380.7
14210.6
14380.7
14333.1
14162.3
14162.3
14162.3
14162.3
14162.3
14210.6
14380.7
14380.7
14380.7
14210.6
14380.7
14380.7
14333.1
14333.1
14333.1
14333.1
14333.1
14380.7
14333.1
14380.7
14333.1
14210.6
14380.7
14162.3
14380.7
13845
14333.1
14199.2
14333.1
14333.1
14333.1
14333.1
14162.3
14162.3
14333.1
14162.3
14210.6
13532.5
14380.7
14162.3
14162.3
14333.1
14210.6
14333.1
14210.6
14162.3
14162.3
14162.3
14162.3
14380.7
14333.1
14380.7
14162.3
14333.1
14333.1
14380.7
14380.7
13571.2
14333.1
14333.1
14210.6
14162.3
14380.7
14162.3
14333.1
14210.6
14380.7
13500.6
14333.1
14162.3
14380.7
14333.1
14380.7
14162.3
14380.7
14380.7
13023.5
14380.7
14333.1
14333.1
14210.6
14380.7
14380.7
14380.7
14333.1
14210.6
14162.3
14380.7
14162.3
14162.3
14380.7
14380.7
14162.3
14380.7
14333.1
14333.1
14333.1
14380.7
14333.1
14333.1
14210.6
14380.7
14333.1
14380.7
14333.1
14380.7
14380.7
14333.1
14210.6
14210.6
14333.1
14333.1
14162.3
14333.1
14162.3
14210.6
14162.3
14162.3
14380.7
14380.7
14333.1
14380.7
14162.3
13905.4
13387
14380.7
14162.3
14379.5
14532.4
13617.9
14333.1
14518.8
14380.7
14333.1
14380.7
14380.7
14210.6
14210.6
14380.7
14333.1
14333.1
14380.7
14380.7
14333.1
14210.6
14333.1
14162.3
14162.3
14380.7
14380.7
14333.1
14519.3
14162.3
14380.7
14162.3
14333.1
14380.7
14333.1
14333.1
14210.6
14380.7
14210.6
14210.6
14380.7
14380.7
14380.7
14380.7
14162.3
14333.1
14333.1
14380.7
14333.1
14380.7
14380.7
14333.1
14380.7
14380.7
14162.3
14380.7
14210.6
14333.1
14210.6
14210.6
14162.3
14380.7
14162.3
14162.3
14333.1
14333.1
14380.7
14162.3
14162.3
14380.7
14380.7
14162.3
14380.7
14380.7
14333.1
14333.1
14333.1
14210.6
14333.1
14380.7
12440.7
14333.1
14380.7
14380.7
14380.7
14333.1
14333.1
14380.7
14380.7
14380.7
14210.6
14162.3
14210.6
14333.1
14210.6
14210.6
14333.1
14162.3
14333.1
14210.6
14162.3
14333.1
14162.3
14024.1
14333.1
13610.3
14210.6
14380.7
14380.7
13664.6
14210.6
14210.6
14162.3
14162.3
14210.6
14380.7
14380.7
14333.1
14380.7
14380.7
14380.7
14210.6
14210.6
14333.1
14333.1
14162.3
14380.7
14162.3
14162.3
14333.1
14210.6
14333.1
14162.3
14162.3
13931.8
14162.3
14380.7
13080.4
14380.7
14380.7
13546.7
14333.1
14210.6
14210.6
14162.3
14380.7
14210.6
14380.7
14210.6
14380.7
14380.7
14210.6
14333.1
14210.6
14210.6
14380.7
14210.6
14380.7
14333.1
14210.6
14380.7
14333.1
14333.1
14333.1
14210.6
14210.6
14380.7
14162.3
14380.7
14210.6
14487.2
14380.7
14380.7
14380.7
14162.3
14380.7
14162.3
14162.3
14333.1
14210.6
14333.1
12308.3
14210.6
14380.7
14333.1
14162.3
14210.6
14380.7
14380.7
14333.1
14380.7
14210.6
14380.7
14162.3
14162.3
14333.1
14162.3
14210.6
14380.7
14380.7
14333.1
14162.3
14380.7
14162.3
14162.3
14210.6
14210.6
14210.6
14162.3
14162.3
14162.3
14380.7
14162.3
14380.7
14162.3
14380.7
14380.7
14380.7
14162.3
14333.1
14333.1
14333.1
14210.6
14333.1
14333.1
12833.7
14380.7
14162.3
14162.3
14333.1
14380.7
14333.1
14380.7
14333.1
14162.3
14333.1
12498.9
14210.6
14380.7
14210.6
14162.3
14333.1
14210.6
14333.1
14380.7
14162.3
14380.7
14162.3
14333.1
14162.3
14210.6
14333.1
14380.7
14162.3
14162.3
14333.1
14210.6
14333.1
14333.1
14333.1
14333.1
14162.3
14380.7
14162.3
14333.1
14380.7
14210.6
14210.6
13901.3
14380.7
14380.7
11808.8
14380.7
14333.1
14333.1
14210.6
14162.3
14380.7
14380.7
14380.7
14333.1
14210.6
14210.6
14162.3
14333.1
14162.3
14162.3
14162.3
14092.8
14162.3
14162.3
14333.1
14162.3
14380.7
14333.1
13660.6
14210.6
14210.6
14333.1
14210.6
14380.7
14380.7
14380.7
14380.7
14380.7
14392.3
14380.7
14162.3
14162.3
14333.1
14380.7
14333.1
14380.7
14333.1
14162.3
14380.7
12917.9
14333.1
14162.3
14162.3
14333.1
14210.6
14333.1
13764.7
14380.7
14162.3
14380.7
14162.3
14380.7
14333.1
14333.1
14380.7
14380.7
14210.6
14380.7
14210.6
14380.7
14333.1
14333.1
14333.1
14210.6
14162.3
14380.7
14333.1
14210.6
14162.3
14380.7
14380.7
14210.6
14380.7
14333.1
14333.1
14210.6
14333.1
14162.3
14210.6
14380.7
14333.1
14162.3
14380.7
14162.3
14162.3
14333.1
14333.1
14333.1
14210.6
14380.7
14210.6
14210.6
14162.3
14333.1
14162.3
12427.8
14333.1
14380.7
13309.9
14210.6
14333.1
14206.1
14333.1
14333.1
14380.7
14333.1
14162.3
14162.3
14162.3
14333.1
14162.3
14380.7
14380.7
14380.7
14162.3
14380.7
14380.7
14333.1
14045.2
14333.1
13634
14380.7
14162.3
14380.7
14162.3
14162.3
14380.7
14333.1
14210.6
14210.6
14210.6
14333.1
14210.6
14210.6
13500.6
14210.6
14210.6
14380.7
14210.6
14210.6
13874.9
14333.1
14380.7
14380.7
14162.3
14162.3
14333.1
14333.1
14162.3
14380.7
14380.7
14162.3
14210.6
14210.6
14162.3
14380.7
14210.6
14162.3
14162.3
14333.1
14380.7
14380.7
14333.1
14380.7
14380.7
14333.1
14210.6
14162.3
14333.1
14333.1
14333.1
14380.7
14380.7
14380.7
14333.1
14380.7
14380.7
14380.7
14380.7
14210.6
14380.7
14162.3
14210.6
14380.7
14380.7
14162.3
14380.7
14333.1
14380.7
13381.3
14162.3
14380.7
14210.6
14333.1
14333.1
14210.6
14210.6
13569.6
14333.1
13809
14380.7
14307.9
14210.6
14380.7
14210.6
14210.6
14162.3
14333.1
14210.6
14380.7
14333.1
14162.3
14333.1
14210.6
14333.1
14333.1
14162.3
14162.3
14380.7
14210.6
14380.7
14380.7
14162.3
14380.7
14162.3
14380.7
14210.6
14210.6
14333.1
13902.5
14210.6
14380.7
14333.1
10728.5
14162.3
14333.1
14162.3
14333.1
14333.1
14162.3
14380.7
14210.6
14210.6
14380.7
14333.1
14333.1
14210.6
13902.5
14210.6
14380.7
14380.7
14210.6
14380.7
14162.3
14333.1
14380.7
14210.6
14162.3
14162.3
14380.7
14333.1
14380.7
14333.1
14333.1
14333.1
14380.7
14162.3
14333.1
14333.1
14162.3
14210.6
13883
14210.6
14210.6
14333.1
14333.1
14210.6
14380.7
14162.3
14333.1
14333.1
14210.6
14210.6
14380.7
14162.3
14162.3
14210.6
14162.3
14333.1
14380.7
14333.1
14162.3
14380.7
14210.6
12852.5
14380.7
14380.7
14380.7
14380.7
14380.7
14162.3
14210.6
13398.7
14210.6
14210.6
14162.3
14458.7
14380.7
14380.7
14210.6
14333.1
14380.7
14210.6
14162.3
14380.7
14210.6
14380.7
14162.3
14333.1
14162.3
14333.1
14210.6
14210.6
14380.7
14210.6
14380.7
14380.7
14210.6
14380.7
14380.7
14333.1
14162.3
14162.3
14131.3
13397.7
14210.6
10813
14162.3
14162.3
14210.6
14210.6
14380.7
14333.1
13309.9
14380.7
14380.7
14333.1
14380.7
14333.1
14162.3
13922.4
14333.1
14380.7
14162.3
14380.7
14380.7
14210.6
14162.3
14380.7
14162.3
14043.9
14162.3
14333.1
14380.7
14210.6
14333.1
14333.1
13181.4
14162.3
14162.3
13931
14210.6
14333.1
14333.1
14380.7
14380.7
14380.7
14333.1
14333.1
14333.1
14380.7
14018.6
14380.7
14162.3
14380.7
14162.3
14210.6
14162.3
14333.1
14333.1
14333.1
14380.7
14162.3
14210.6
14162.3
14333.1
14162.3
14380.7
14210.6
14210.6
14380.7
14210.6
14210.6
14162.3
14380.7
14210.6
14333.1
14333.1
14162.3
14380.7
14380.7
14210.6
14210.6
14162.3
14380.7
14210.6
14210.6
14162.3
14380.7
14197.1
14333.1
14400.4
14162.3
14210.6
14333.1
14380.7
14210.6
14162.3
14380.7
14333.1
14210.6
14380.7
14333.1
14162.3
14210.6
14380.7
14380.7
14333.1
14380.7
14210.6
14333.1
14210.6
14162.3
14162.3
14380.7
14162.3
14333.1
14333.1
14333.1
14162.3
14210.6
14333.1
14162.3
13595.8
14162.3
14380.7
14210.6
14210.6
14380.7
14210.6
14333.1
14210.6
14162.3
14162.3
14162.3
14333.1
14162.3
14333.1
14333.1
14162.3
14210.6
14162.3
14162.3
14210.6
14333.1
14333.1
14162.3
13314.9
14210.6
14333.1
14333.1
14210.6
14162.3
14210.6
14210.6
14333.1
14380.7
14380.7
14333.1
14380.7
14162.3
13516.3
14162.3
14333.1
14333.1
14333.1
14333.1
14333.1
13921
14380.7
14210.6
13565.2
14162.3
14333.1
14380.7
14333.1
14333.1
13097.5
14333.1
14162.3
14333.1
14333.1
14333.1
14380.7
14162.3
14333.1
14380.7
14333.1
14210.6
14162.3
14333.1
14162.3
14380.7
14210.6
14162.3
14380.7
14380.7
14333.1
14333.1
14333.1
14380.7
14162.3
13372
14380.7
14380.7
14333.1
14333.1
14162.3
14210.6
14210.6
14333.1
14333.1
14162.3
14333.1
14210.6
14380.7
14333.1
14333.1
14162.3
14162.3
14333.1
14380.7
14162.3
14210.6
14210.6
14380.7
14380.7
14162.3
14162.3
14380.7
14024.1
14162.3
14210.6
14380.7
13600.6
14380.7
14380.7
14380.7
14210.6
14333.1
14333.1
14210.6
14162.3
14210.6
14162.3
14333.1
14210.6
14333.1
14333.1
14380.7
14333.1
14518.8
14210.6
14380.7
14380.7
14162.3
14162.3
14333.1
14210.6
14333.1
14210.6
14333.1
14333.1
14380.7
14210.6
14380.7
14333.1
14162.3
14162.3
14333.1
14210.6
14333.1
14380.7
14333.1
14380.7
14333.1
14380.7
14380.7
14162.3
14333.1
14210.6
14333.1
14380.7
14162.3
14380.7
14210.6
14210.6
14210.6
14333.1
14380.7
14210.6
14380.7
14210.6
14210.6
14333.1
14380.7
14333.1
14333.1
14162.3
14333.1
14162.3
14333.1
14380.7
14210.6
14523.8
14162.3
14162.3
14380.7
14333.1
14333.1
14333.1
14333.1
14380.7
14380.7
14162.3
14162.3
14333.1
14333.1
12812
14333.1
14210.6
14380.7
14380.7
14333.1
14380.7
12255.6
14210.6
14333.1
14380.7
14210.6
14162.3
14380.7
14162.3
14333.1
14162.3
13575.4
14210.6
14162.3
14333.1
14333.1
14333.1
14162.3
14210.6
14162.3
14333.1
14380.7
14333.1
14162.3
14333.1
14210.6
14162.3
14162.3
14210.6
14380.7
13223.5
14333.1
14333.1
14380.7
14380.7
14380.7
14210.6
14333.1
14333.1
14380.7
14210.6
14333.1
14210.6
14380.7
14380.7
14333.1
14162.3
14210.6
14380.7
14210.6
14333.1
14210.6
14210.6
14162.3
14162.3
14162.3
14162.3
14380.7
14210.6
14210.6
14210.6
14162.3
14333.1
14162.3
14333.1
14380.7
14380.7
14380.7
14380.7
14210.6
14380.7
13725
12308.3
14162.3
14333.1
14333.1
14210.6
14210.6
14380.7
14380.7
14380.7
14333.1
14210.6
14162.3
14162.3
14333.1
14210.6
14210.6
14333.1
14162.3
14333.1
14210.6
14162.3
14380.7
14380.7
14333.1
14333.1
14333.1
14333.1
14162.3
14162.3
14162.3
14162.3
14333.1
14333.1
14380.7
14333.1
14380.7
14162.3
14380.7
14380.7
13576.6
14333.1
14333.1
13559.2
14162.3
14380.7
14210.6
14380.7
14210.6
14333.1
14380.7
13901.3
14333.1
13776.2
14210.6
14380.7
14380.7
14210.6
14333.1
14333.1
14333.1
14210.6
14162.3
14333.1
14333.1
14519
14210.6
14333.1
14162.3
14162.3
14162.3
13566.4
14162.3
14210.6
14333.1
13805.3
14162.3
14380.7
14380.7
14380.7
14380.7
14380.7
14333.1
14210.6
14380.7
14380.7
14380.7
14380.7
14162.3
14333.1
14333.1
14380.7
14333.1
14333.1
14333.1
14333.1
14162.3
14380.7
14380.7
14210.6
14333.1
14380.7
14333.1
14210.6
14333.1
12797.7
13664.6
14380.7
14162.3
14210.6
14210.6
14162.3
14210.6
14162.3
14380.7
14333.1
14162.3
14162.3
14001.7
14162.3
14380.7
14210.6
14333.1
14380.7
14333.1
14333.1
14162.3
14162.3
14162.3
14380.7
14162.3
13845
14210.6
12082.5
14210.6
14210.6
13994
14210.6
14380.7
14380.7
14380.7
14333.1
14210.6
14380.7
14162.3
14333.1
14333.1
14210.6
14380.7
13878.1
14380.7
14380.7
14162.3
14210.6
14380.7
14210.6
14380.7
14210.6
14380.7
14380.7
14162.3
14162.3
14380.7
14210.6
14333.1
14333.1
14210.6
14380.7
14162.3
13719.5
14162.3
14380.7
14380.7
14333.1
14210.6
14380.7
14210.6
13764.7
14333.1
14333.1
12893.9
14162.3
14162.3
14162.3
14333.1
14380.7
14210.6
13982.7
13908.5
14210.6
14380.7
14162.3
14380.7
14162.3
14333.1
14380.7
14333.1
14162.3
14210.6
14210.6
13472.8
14380.7
14380.7
14162.3
14380.7
14380.7
14380.7
14380.7
14210.6
14380.7
14210.6
14380.7
14380.7
14162.3
14210.6
14210.6
14380.7
14210.6
14162.3
14162.3
14162.3
14162.3
14380.7
14210.6
14333.1
14380.7
14380.7
14210.6
14333.1
14333.1
14380.7
14210.6
14162.3
14333.1
14210.6
14380.7
14210.6
14333.1
14380.7
14333.1
14380.7
14210.6
14162.3
14162.3
14380.7
14210.6
14333.1
14333.1
14380.7
14210.6
14380.7
14380.7
14380.7
14333.1
14162.3
14162.3
14162.3
14162.3
14380.7
14333.1
14333.1
14162.3
14380.7
14210.6
14380.7
14210.6
14162.3
14333.1
14333.1