<?xml version="1.0"?>
<VTKFile type="ImageData" version="0.1" byte_order="LittleEndian">
  <ImageData Origin="0 0 0" Spacing="1e-05 1e-05 1e-05" WholeExtent="0 191 0 191 0 0">
    <Piece Extent="0 191 0 191 0 0">
      <CellData Scalars="T">
        <DataArray type="Float32" Name="T" format="ascii" NumberOfComponents="1">
444.865
15000
15000
14999.9
14999.7
14999.5
14999.2
14998.8
14998.1
14997.1
14995.8
14993.9
14991.4
14988
14983.6
14977.6
14970
14960.1
14947.5
14931.6
14911.7
14887.1
14856.8
14820
14775.5
14722.2
14658.9
14584.3
14497.2
14396.1
14279.8
14146.9
13996.4
13827
13637.9
13428.3
13197.7
12945.7
12672.4
12378.1
12063.4
11729.2
11376.8
11007.8
10623.9
10227.5
9820.76
9406.39
8987.07
8565.64
8144.95
7727.88
7317.21
6915.64
6525.67
6149.63
5789.59
5447.35
5124.42
4822.01
4541.02
4282.04
4045.37
3831.03
3638.77
3468.12
3318.41
3188.8
3078.3
2985.83
2910.24
2850.31
2804.85
2772.63
2752.5
2743.33
2744.05
2753.67
2771.28
2796.04
2827.22
2864.14
2906.22
2952.92
3003.8
3058.47
3116.56
3177.77
3241.83
3308.49
3377.52
3448.68
3521.77
3596.57
3672.83
3750.34
3828.82
3908.01
3987.61
4067.32
4146.8
4225.7
4303.65
4380.28
4455.21
4528.05
4598.44
4665.99
4730.37
4791.27
4848.37
4901.45
4950.29
4994.71
5034.61
5069.92
5100.61
5126.7
5148.28
5165.44
5178.34
5187.14
5192.05
5193.27
5191.04
5185.55
5177.03
5165.66
5151.61
5135.03
5116.02
5094.66
5070.98
5045
5016.69
4986.02
4952.94
4917.38
4879.31
4838.71
4795.56
4749.93
4701.91
4651.65
4599.35
4545.3
4489.81
4433.28
4376.14
4318.86
4261.95
4205.91
4151.28
4098.55
4048.23
4000.77
3956.58
3916.03
3879.42
3847.01
3818.97
3795.43
3776.44
3761.98
3752
3746.36
3744.89
3747.37
3753.53
3763.05
3775.59
3790.77
3808.18
3827.39
3847.95
3869.39
3891.22
3912.94
3934
3953.77
3971.49
3986.07
3995.82
3997.86
3986.95
3953.33
3878.41
3726.52
3428.17
2845.52
1694.83
314.373
746.206
15000
15000
14999.9
14999.7
14999.5
14999.2
14998.8
14998.1
14997.1
14995.8
14993.9
14991.4
14988.1
14983.6
14977.7
14970
14960.1
14947.5
14931.7
14911.8
14887.2
14856.9
14820.1
14775.6
14722.4
14659.1
14584.6
14497.5
14396.5
14280.2
14147.4
13996.9
13827.6
13638.6
13429.1
13198.5
12946.7
12673.5
12379.2
12064.6
11730.4
11378.1
11009
10625.2
10228.8
9822.03
9407.61
8988.22
8566.7
8145.9
7728.7
7317.87
6916.12
6525.96
6149.7
5789.43
5446.94
5123.75
4821.07
4539.8
4280.55
4043.6
3828.98
3636.44
3465.53
3315.56
3185.7
3074.97
2982.27
2906.46
2846.34
2800.69
2768.31
2748.02
2738.7
2739.28
2748.77
2766.26
2790.92
2821.99
2858.81
2900.78
2947.39
2998.18
3052.75
3110.75
3171.88
3235.86
3302.44
3371.38
3442.48
3515.5
3590.24
3666.45
3743.92
3822.37
3901.55
3981.15
4060.88
4140.38
4219.33
4297.35
4374.06
4449.09
4522.05
4592.56
4660.25
4724.79
4785.85
4843.14
4896.4
4945.42
4990.03
5030.12
5065.62
5096.49
5122.76
5144.5
5161.81
5174.85
5183.78
5188.79
5190.11
5187.95
5182.52
5174.04
5162.69
5148.65
5132.06
5113.03
5091.64
5067.92
5041.88
5013.52
4982.79
4949.64
4914.03
4875.9
4835.24
4792.05
4746.38
4698.33
4648.04
4595.74
4541.68
4486.21
4429.69
4372.58
4315.34
4258.46
4202.48
4147.89
4095.23
4044.96
3997.56
3953.43
3912.93
3876.38
3844.02
3816.04
3792.54
3773.59
3759.17
3749.22
3743.61
3742.16
3744.66
3750.82
3760.34
3772.86
3788.02
3805.4
3824.58
3845.09
3866.48
3888.25
3909.89
3930.87
3950.56
3968.2
3982.69
3992.38
3994.38
3983.52
3950.14
3876.09
3726.9
3437.46
2886.92
1864.71
323.617
741.233
15000
15000
14999.9
14999.7
14999.5
14999.2
14998.8
14998.1
14997.1
14995.8
14994
14991.4
14988.1
14983.6
14977.7
14970
14960.2
14947.6
14931.8
14911.9
14887.3
14857.1
14820.4
14775.9
14722.8
14659.6
14585.1
14498.1
14397.2
14281
14148.4
13998
13828.9
13640
13430.7
13200.3
12948.5
12675.5
12381.4
12066.9
11732.8
11380.5
11011.6
10627.8
10231.3
9824.54
9410.03
8990.52
8568.82
8147.81
7730.34
7319.21
6917.1
6526.55
6149.87
5789.13
5446.15
5122.45
4819.24
4537.43
4277.62
4040.11
3824.94
3631.86
3460.42
3309.93
3179.58
3068.37
2975.22
2898.99
2838.47
2792.45
2759.72
2739.11
2729.49
2729.8
2739.04
2756.29
2780.72
2811.57
2848.19
2889.97
2936.39
2986.99
3041.38
3099.2
3160.15
3223.96
3290.38
3359.17
3430.11
3503.01
3577.62
3653.74
3731.12
3809.52
3888.67
3968.27
4048.02
4127.59
4206.63
4284.77
4361.64
4436.86
4510.05
4580.81
4648.79
4713.64
4775.03
4832.66
4886.28
4935.68
4980.67
5021.14
5057
5088.23
5114.85
5136.91
5154.54
5167.85
5177.03
5182.27
5183.77
5181.76
5176.45
5168.05
5156.75
5142.73
5126.13
5107.06
5085.6
5061.79
5035.66
5007.18
4976.33
4943.06
4907.33
4869.08
4828.32
4785.03
4739.29
4691.17
4640.85
4588.52
4534.46
4479.01
4422.53
4365.47
4308.3
4251.51
4195.62
4141.14
4088.58
4038.43
3991.14
3947.13
3906.75
3870.31
3838.06
3810.18
3786.77
3767.91
3753.56
3743.68
3738.12
3736.71
3739.23
3745.41
3754.92
3767.43
3782.54
3799.87
3818.96
3839.38
3860.66
3882.3
3903.8
3924.62
3944.15
3961.61
3975.95
3985.49
3987.4
3976.57
3943.53
3870.54
3724.24
3442.21
2908.51
1908.32
324.392
735.886
15000
15000
14999.9
14999.7
14999.5
14999.2
14998.8
14998.1
14997.1
14995.8
14994
14991.5
14988.1
14983.6
14977.8
14970.1
14960.3
14947.7
14931.9
14912.1
14887.6
14857.4
14820.7
14776.4
14723.3
14660.2
14585.9
14499
14398.3
14282.3
14149.8
13999.7
13830.7
13642.1
13432.9
13202.8
12951.3
12678.5
12384.6
12070.2
11736.4
11384.2
11015.3
10631.6
10235.1
9828.26
9413.64
8993.94
8572
8150.66
7732.81
7321.23
6918.61
6527.48
6150.17
5788.75
5445.05
5120.59
4816.6
4533.98
4273.35
4035.02
3819.03
3625.14
3452.9
3301.65
3170.55
3058.63
2964.82
2887.95
2826.83
2780.25
2747.01
2725.92
2715.85
2715.74
2724.59
2741.48
2765.57
2796.1
2832.41
2873.88
2920.01
2970.33
3024.45
3082
3142.69
3206.24
3272.41
3340.97
3411.69
3484.38
3558.82
3634.78
3712.04
3790.36
3869.45
3949.05
4028.83
4108.48
4187.65
4265.98
4343.08
4418.58
4492.1
4563.24
4631.64
4696.94
4758.81
4816.96
4871.12
4921.06
4966.61
5007.64
5044.05
5075.82
5102.95
5125.51
5143.59
5157.32
5166.88
5172.45
5174.23
5172.45
5167.32
5159.05
5147.83
5133.83
5117.21
5098.08
5076.53
5052.6
5026.32
4997.68
4966.66
4933.21
4897.29
4858.88
4817.96
4774.54
4728.68
4680.48
4630.09
4577.73
4523.67
4468.25
4411.83
4354.85
4297.78
4241.12
4185.37
4131.04
4078.65
4028.67
3981.56
3937.72
3897.51
3861.24
3829.15
3801.41
3778.15
3759.41
3745.18
3735.39
3729.91
3728.56
3731.12
3737.3
3746.81
3759.28
3774.34
3791.57
3810.55
3830.83
3851.93
3873.38
3894.67
3915.26
3934.53
3951.74
3965.83
3975.15
3976.9
3966.05
3933.29
3861.23
3717.26
3440.49
2918.48
1947.54
325.598
732.317
15000
15000
14999.9
14999.7
14999.5
14999.2
14998.8
14998.1
14997.2
14995.8
14994
14991.5
14988.1
14983.7
14977.8
14970.2
14960.4
14947.9
14932.1
14912.3
14887.9
14857.8
14821.2
14777
14724
14661.1
14586.9
14500.2
14399.6
14283.9
14151.7
14001.8
13833.1
13644.8
13435.9
13206.1
12954.9
12682.3
12388.7
12074.6
11741
11389
11020.2
10636.5
10240.1
9833.17
9418.39
8998.47
8576.2
8154.47
7736.12
7323.96
6920.68
6528.81
6150.68
5788.38
5443.74
5118.29
4813.27
4529.6
4267.89
4028.48
3811.41
3616.45
3443.17
3290.9
3158.82
3045.96
2951.25
2873.53
2811.62
2764.3
2730.36
2708.62
2697.95
2697.28
2705.61
2722.01
2745.64
2775.73
2811.62
2852.7
2898.44
2948.38
3002.12
3059.31
3119.64
3182.85
3248.69
3316.93
3387.36
3459.77
3533.97
3609.72
3686.81
3765
3844.02
3923.59
4003.42
4083.17
4162.5
4241.06
4318.46
4394.32
4468.26
4539.88
4608.82
4674.72
4737.23
4796.05
4850.9
4901.57
4947.85
4989.61
5026.75
5059.22
5087.04
5110.25
5128.93
5143.22
5153.28
5159.29
5161.45
5159.98
5155.09
5146.99
5135.88
5121.93
5105.3
5086.1
5064.43
5040.35
5013.88
4985.03
4953.78
4920.1
4883.95
4845.32
4804.19
4760.6
4714.59
4666.28
4615.81
4563.42
4509.36
4453.97
4397.63
4340.76
4283.83
4227.33
4171.77
4117.65
4065.48
4015.72
3968.84
3925.23
3885.25
3849.2
3817.32
3789.78
3766.7
3748.13
3734.04
3724.38
3719
3717.73
3720.33
3726.54
3736.03
3748.45
3763.42
3780.54
3799.36
3819.44
3840.32
3861.51
3882.51
3902.79
3921.74
3938.61
3952.37
3961.38
3962.89
3951.93
3919.35
3848.03
3705.88
3432.82
2916.41
1943.93
325.238
726.953
15000
15000
14999.9
14999.7
14999.5
14999.2
14998.8
14998.1
14997.2
14995.8
14994
14991.5
14988.2
14983.7
14977.9
14970.3
14960.5
14948
14932.3
14912.6
14888.2
14858.3
14821.7
14777.6
14724.8
14662
14588.1
14501.6
14401.3
14285.8
14153.9
14004.3
13836
13648
13439.5
13210
12959.2
12687
12393.7
12079.9
11746.5
11394.8
11026.2
10642.6
10246.2
9839.18
9424.24
9004.05
8581.42
8159.21
7740.27
7327.42
6923.35
6530.59
6151.48
5788.11
5442.33
5115.68
4809.41
4524.44
4261.43
4020.69
3802.29
3606.02
3431.44
3277.92
3144.62
3030.59
2934.77
2856
2793.09
2744.84
2710.02
2687.47
2676.05
2674.67
2682.33
2698.11
2721.16
2750.7
2786.05
2826.62
2871.87
2921.33
2974.6
3031.33
3091.22
3153.99
3219.41
3287.24
3357.3
3429.37
3503.25
3578.74
3655.61
3733.63
3812.54
3892.08
3971.93
4051.79
4131.31
4210.13
4287.88
4364.17
4438.62
4510.83
4580.42
4647.02
4710.3
4769.94
4825.65
4877.2
4924.38
4967.03
5005.06
5038.42
5067.08
5091.08
5110.52
5125.51
5136.19
5142.75
5145.39
5144.31
5139.73
5131.86
5120.89
5107.01
5090.38
5071.11
5049.31
5025.04
4998.35
4969.25
4937.73
4903.76
4867.34
4828.45
4787.08
4743.27
4697.08
4648.63
4598.08
4545.64
4491.59
4436.25
4380
4323.27
4266.52
4210.23
4154.9
4101.03
4049.13
3999.65
3953.06
3909.73
3870.03
3834.26
3802.63
3775.34
3752.48
3734.11
3720.21
3710.69
3705.43
3704.25
3706.91
3713.13
3722.6
3734.95
3749.82
3766.78
3785.41
3805.25
3825.84
3846.71
3867.35
3887.24
3905.78
3922.23
3935.57
3944.2
3945.39
3934.24
3901.73
3830.95
3690.16
3419.5
2905.47
1931.96
324.671
725.708
15000
15000
14999.9
14999.7
14999.5
14999.2
14998.8
14998.1
14997.2
14995.9
14994
14991.6
14988.2
14983.8
14978
14970.4
14960.7
14948.2
14932.6
14912.9
14888.6
14858.8
14822.4
14778.4
14725.7
14663.2
14589.4
14503.2
14403.1
14288
14156.4
14007.2
13839.2
13651.6
13443.6
13214.5
12964.1
12692.4
12399.5
12086.1
11753
11401.5
11033.1
10649.7
10253.3
9846.23
9431.12
9010.64
8587.6
8164.86
7745.27
7331.64
6926.66
6532.88
6152.64
5788.05
5440.95
5112.91
4805.18
4518.71
4254.16
4011.87
3791.92
3594.1
3418
3262.98
3128.24
3012.83
2915.68
2835.65
2771.55
2722.17
2686.3
2662.77
2650.42
2648.19
2655.05
2670.07
2692.4
2721.26
2755.97
2795.92
2840.56
2889.44
2942.14
2998.31
3057.66
3119.9
3184.81
3252.16
3321.76
3393.4
3466.9
3542.05
3618.64
3696.45
3775.22
3854.69
3934.56
4014.52
4094.24
4173.36
4251.49
4328.27
4403.29
4476.16
4546.5
4613.93
4678.1
4738.68
4795.39
4847.96
4896.19
4939.9
4978.99
5013.37
5043.02
5067.98
5088.32
5104.13
5115.56
5122.79
5126
5125.4
5121.2
5113.62
5102.84
5089.06
5072.43
5053.09
5031.15
5006.69
4979.75
4950.37
4918.54
4884.26
4847.52
4808.32
4766.68
4722.62
4676.24
4627.63
4576.97
4524.49
4470.44
4415.17
4359.03
4302.47
4245.92
4189.88
4134.82
4081.26
4029.68
3980.54
3934.28
3891.29
3851.93
3816.47
3785.15
3758.15
3735.55
3717.42
3703.72
3694.38
3689.26
3688.18
3690.9
3697.13
3706.56
3718.84
3733.56
3750.34
3768.72
3788.27
3808.52
3829
3849.21
3868.64
3886.69
3902.65
3915.49
3923.65
3924.44
3913.03
3880.49
3810.1
3670.34
3401.5
2889.69
1915.28
323.421
731.55
15000
15000
14999.9
14999.7
14999.5
14999.2
14998.8
14998.1
14997.2
14995.9
14994.1
14991.6
14988.3
14983.9
14978.1
14970.5
14960.8
14948.4
14932.8
14913.3
14889.1
14859.3
14823
14779.2
14726.7
14664.4
14590.9
14504.9
14405.2
14290.3
14159.1
14010.3
13842.8
13655.7
13448.1
13219.5
12969.6
12698.3
12405.9
12092.9
11760.2
11409.1
11040.9
10657.6
10261.3
9854.21
9438.94
9018.17
8594.71
8171.4
7751.1
7336.62
6930.65
6535.75
6154.26
5788.3
5439.74
5110.14
4800.78
4512.62
4246.33
4002.28
3780.56
3580.98
3403.14
3246.42
3110.02
2993
2894.31
2812.82
2747.33
2696.64
2659.54
2634.85
2621.42
2618.17
2624.08
2638.21
2659.69
2687.75
2721.69
2760.9
2804.83
2853.01
2905.03
2960.55
3019.25
3080.87
3145.18
3211.95
3281.01
3352.15
3425.18
3499.93
3576.18
3653.72
3732.3
3811.66
3891.52
3971.58
4051.49
4130.91
4209.46
4286.75
4362.4
4436
4507.17
4575.52
4640.68
4702.33
4760.16
4813.89
4863.31
4908.22
4948.5
4984.06
5014.86
5040.91
5062.28
5079.05
5091.35
5099.36
5103.25
5103.22
5099.48
5092.24
5081.7
5068.06
5051.46
5032.07
5009.99
4985.33
4958.12
4928.43
4896.27
4861.64
4824.56
4785.03
4743.07
4698.75
4652.14
4603.36
4552.6
4500.06
4446.03
4390.83
4334.83
4278.46
4222.15
4166.39
4111.66
4058.45
4007.23
3958.47
3912.6
3870.01
3831.02
3795.93
3764.96
3738.28
3715.99
3698.12
3684.66
3675.52
3670.55
3669.58
3672.35
3678.59
3687.97
3700.14
3714.7
3731.25
3749.35
3768.55
3788.4
3808.43
3828.14
3847.04
3864.53
3879.91
3892.18
3899.8
3900.11
3888.35
3855.7
3785.58
3646.64
3379.28
2869.58
1898.06
322.114
740.754
15000
15000
14999.9
14999.7
14999.5
14999.2
14998.8
14998.1
14997.2
14995.9
14994.1
14991.6
14988.3
14983.9
14978.2
14970.6
14961
14948.7
14933.1
14913.6
14889.5
14859.9
14823.7
14780.1
14727.8
14665.7
14592.4
14506.7
14407.3
14292.9
14162.1
14013.7
13846.7
13660
13452.9
13224.9
12975.5
12704.7
12412.8
12100.3
11768.1
11417.3
11049.4
10666.3
10270.1
9863.01
9447.6
9026.55
8602.66
8178.76
7757.73
7342.35
6935.34
6539.23
6156.4
5788.98
5438.82
5107.53
4796.38
4506.37
4238.18
3992.19
3768.5
3566.97
3387.19
3228.56
3090.3
2971.47
2871.05
2787.89
2720.83
2668.64
2630.13
2604.11
2589.43
2585.01
2589.81
2602.9
2623.4
2650.52
2683.57
2721.91
2765.01
2812.39
2863.63
2918.38
2976.33
3037.23
3100.84
3166.95
3235.37
3305.91
3378.41
3452.68
3528.52
3605.72
3684.05
3763.27
3843.09
3923.2
4003.3
4083.01
4161.98
4239.82
4316.13
4390.51
4462.57
4531.91
4598.16
4660.97
4720.02
4775.03
4825.76
4872.01
4913.62
4950.49
4982.57
5009.86
5032.39
5050.24
5063.54
5072.44
5077.1
5077.74
5074.54
5067.72
5057.48
5044.01
5027.49
5008.06
4985.86
4960.99
4933.52
4903.51
4870.99
4836
4798.54
4758.66
4716.37
4671.76
4624.91
4575.96
4525.07
4472.49
4418.48
4363.37
4307.53
4251.38
4195.34
4139.9
4085.53
4032.71
3981.91
3933.58
3888.15
3845.98
3807.42
3772.74
3742.17
3715.85
3693.89
3676.32
3663.11
3654.18
3649.38
3648.51
3651.34
3657.58
3666.89
3678.93
3693.29
3709.58
3727.34
3746.15
3765.54
3785.05
3804.2
3822.49
3839.34
3854.07
3865.7
3872.7
3872.48
3860.31
3827.48
3757.53
3619.28
3353.2
2845.36
1877.31
320.665
740.585
15000
15000
14999.9
14999.7
14999.5
14999.2
14998.8
14998.1
14997.2
14995.9
14994.1
14991.7
14988.4
14984
14978.2
14970.8
14961.1
14948.9
14933.4
14914
14890
14860.4
14824.4
14781
14728.9
14667
14594
14508.6
14409.5
14295.5
14165.1
14017.2
13850.6
13664.5
13458
13230.5
12981.7
12711.5
12420.1
12108.1
11776.4
11426
11058.5
10675.7
10279.6
9872.51
9456.99
9035.68
8611.37
8186.9
7765.12
7348.83
6940.73
6543.38
6159.15
5790.17
5438.33
5105.23
4792.19
4500.19
4229.94
3981.85
3756.04
3552.37
3370.47
3209.75
3069.44
2948.63
2846.28
2761.27
2692.44
2638.57
2598.47
2570.95
2554.85
2549.1
2552.64
2564.54
2583.91
2609.96
2641.98
2679.34
2721.49
2767.94
2818.28
2872.16
2929.27
2989.34
3052.15
3117.5
3185.19
3255.06
3326.94
3400.64
3475.99
3552.79
3630.81
3709.82
3789.54
3869.68
3949.93
4029.92
4109.31
4187.7
4264.69
4339.88
4412.86
4483.25
4550.65
4614.7
4675.07
4731.46
4783.61
4831.3
4874.36
4912.67
4946.16
4974.81
4998.63
5017.69
5032.11
5042.01
5047.56
5048.95
5046.38
5040.06
5030.18
5016.94
5000.53
4981.1
4958.8
4933.74
4906
4875.67
4842.8
4807.43
4769.59
4729.33
4686.71
4641.79
4594.7
4545.55
4494.56
4441.93
4387.95
4332.95
4277.29
4221.38
4165.65
4110.56
4056.59
4004.2
3953.85
3906
3861.04
3819.36
3781.26
3747.03
3716.88
3690.96
3669.36
3652.11
3639.17
3630.46
3625.83
3625.08
3627.96
3634.17
3643.4
3655.28
3669.41
3685.38
3702.77
3721.13
3740
3758.93
3777.45
3795.07
3811.22
3825.23
3836.14
3842.47
3841.64
3829
3795.92
3726.09
3588.44
3323.49
2816.47
1845.33
319.767
738.901
15000
15000
14999.9
14999.7
14999.5
14999.2
14998.8
14998.1
14997.2
14995.9
14994.1
14991.7
14988.4
14984.1
14978.3
14970.9
14961.3
14949.1
14933.6
14914.3
14890.4
14861
14825.1
14781.8
14729.9
14668.3
14595.5
14510.5
14411.8
14298.1
14168.1
14020.7
13854.6
13669.1
13463.1
13236.2
12988
12718.4
12427.7
12116.2
11785
11435.1
11068
10685.5
10289.6
9882.57
9466.98
9045.45
8620.76
8195.74
7773.22
7356.02
6946.82
6548.21
6162.53
5791.96
5438.38
5103.4
4788.36
4494.27
4221.85
3971.53
3743.46
3537.51
3353.33
3190.36
3047.83
2924.84
2820.39
2733.36
2662.58
2606.86
2565
2535.8
2518.13
2510.87
2513
2523.56
2541.66
2566.49
2597.35
2633.6
2674.67
2720.08
2769.42
2822.31
2878.46
2937.61
2999.52
3064
3130.87
3199.97
3271.13
3344.19
3418.97
3495.28
3572.92
3651.66
3731.22
3811.34
3891.69
3971.93
4051.71
4130.63
4208.3
4284.31
4358.25
4429.71
4498.31
4563.66
4625.42
4683.27
4736.93
4786.17
4830.79
4870.66
4905.67
4935.79
4961.03
4981.42
4997.06
5008.08
5014.62
5016.87
5015.02
5009.27
4999.83
4986.89
4970.64
4951.26
4928.88
4903.65
4875.67
4845.04
4811.81
4776.05
4737.83
4697.2
4654.23
4609.01
4561.66
4512.33
4461.22
4408.55
4354.62
4299.74
4244.27
4188.63
4133.23
4078.53
4024.99
3973.07
3923.23
3875.88
3831.44
3790.27
3752.68
3718.93
3689.24
3663.74
3642.52
3625.61
3612.96
3604.48
3600.02
3599.37
3602.29
3608.47
3617.58
3629.27
3643.13
3658.76
3675.72
3693.57
3711.87
3730.16
3747.99
3764.86
3780.25
3793.47
3803.61
3809.2
3807.7
3794.55
3761.18
3691.41
3554.38
3291
2788.14
1831.7
319.211
733.474
15000
15000
14999.9
14999.8
14999.6
14999.2
14998.8
14998.2
14997.2
14995.9
14994.2
14991.7
14988.5
14984.1
14978.4
14971
14961.4
14949.3
14933.9
14914.7
14890.8
14861.5
14825.8
14782.7
14731
14669.5
14597.1
14512.3
14414
14300.6
14171.1
14024.2
13858.6
13673.6
13468.3
13242
12994.4
12725.4
12435.3
12124.5
11793.8
11444.4
11077.8
10695.6
10299.9
9893.05
9477.45
9055.75
8630.71
8205.17
7781.96
7363.87
6953.6
6553.72
6166.6
5794.41
5439.05
5102.15
4785.05
4488.8
4214.13
3961.49
3731.04
3522.69
3336.1
3170.72
3025.82
2900.52
2793.81
2704.59
2631.7
2573.96
2530.16
2499.12
2479.7
2470.79
2471.35
2480.41
2497.08
2520.57
2550.13
2585.13
2625
2669.25
2717.45
2769.25
2824.33
2882.44
2943.35
3006.87
3072.82
3141.05
3211.4
3283.72
3357.84
3433.59
3510.77
3589.15
3668.49
3748.52
3828.92
3909.36
3989.48
4068.91
4147.24
4224.06
4298.96
4371.52
4441.34
4508.03
4571.23
4630.6
4685.85
4736.72
4782.99
4824.51
4861.16
4892.87
4919.62
4941.46
4958.44
4970.69
4978.33
4981.54
4980.5
4975.42
4966.49
4953.92
4937.89
4918.6
4896.2
4870.84
4842.64
4811.72
4778.15
4742.03
4703.42
4662.42
4619.1
4573.58
4525.98
4476.47
4425.25
4372.56
4318.68
4263.94
4208.69
4153.33
4098.29
4044.01
3990.94
3939.52
3890.2
3843.4
3799.52
3758.89
3721.84
3688.61
3659.39
3634.34
3613.52
3596.96
3584.61
3576.36
3572.07
3571.51
3574.45
3580.57
3589.55
3601.01
3614.56
3629.8
3646.28
3663.57
3681.24
3698.84
3715.91
3731.99
3746.54
3758.92
3768.23
3773.02
3770.81
3757.09
3723.39
3653.7
3517.44
3256.24
2758.67
1810.94
318.523
732.401
15000
15000
14999.9
14999.8
14999.6
14999.3
14998.8
14998.2
14997.2
14996
14994.2
14991.8
14988.5
14984.2
14978.5
14971.1
14961.6
14949.5
14934.1
14915
14891.2
14862
14826.5
14783.5
14732
14670.7
14598.5
14514.1
14416.1
14303.1
14174
14027.6
13862.6
13678.1
13473.3
13247.6
13000.7
12732.4
12442.9
12132.7
11802.7
11453.8
11087.7
10705.9
10310.5
9903.83
9488.26
9066.44
8641.13
8215.12
7791.26
7372.32
6961.02
6559.9
6171.36
5797.56
5440.42
5101.58
4782.41
4483.95
4206.97
3951.93
3719.03
3508.19
3319.08
3151.19
3003.8
2876.04
2766.92
2675.36
2600.2
2540.28
2494.39
2461.36
2440.03
2429.3
2428.13
2435.55
2450.66
2472.64
2500.77
2534.39
2572.92
2615.88
2662.84
2713.42
2767.33
2824.29
2884.09
2946.54
3011.47
3078.74
3148.18
3219.67
3293.04
3368.13
3444.76
3522.71
3601.75
3681.6
3761.98
3842.56
3922.98
4002.86
4081.81
4159.42
4235.26
4308.91
4379.97
4448.02
4512.69
4573.63
4630.52
4683.08
4731.09
4774.34
4812.71
4846.11
4874.49
4897.88
4916.31
4929.89
4938.73
4943.01
4942.88
4938.55
4930.23
4918.1
4902.37
4883.24
4860.87
4835.42
4807.05
4775.86
4741.98
4705.51
4666.54
4625.18
4581.53
4535.71
4487.87
4438.19
4386.87
4334.16
4280.35
4225.76
4170.75
4115.71
4061.05
4007.21
3954.62
3903.74
3854.98
3808.76
3765.45
3725.4
3688.91
3656.21
3627.5
3602.91
3582.5
3566.3
3554.24
3546.23
3542.09
3541.62
3544.56
3550.6
3559.4
3570.61
3583.81
3598.6
3614.56
3631.25
3648.23
3665.07
3681.33
3696.55
3710.22
3721.7
3730.12
3734.07
3731.11
3716.78
3682.75
3613.15
3477.77
3218.83
2726.12
1790.19
318.059
729.631
15000
15000
14999.9
14999.8
14999.6
14999.3
14998.8
14998.2
14997.2
14996
14994.2
14991.8
14988.5
14984.2
14978.6
14971.2
14961.7
14949.6
14934.4
14915.3
14891.6
14862.5
14827.1
14784.2
14732.9
14671.9
14599.9
14515.8
14418.1
14305.5
14176.8
14030.8
13866.3
13682.4
13478.2
13253.2
13006.9
12739.3
12450.4
12140.9
11811.5
11463.2
11097.6
10716.2
10321.2
9914.77
9499.29
9077.42
8651.89
8225.49
7801.04
7381.32
6969.03
6566.73
6176.81
5801.44
5442.55
5101.79
4780.54
4479.86
4200.55
3943.08
3707.68
3494.27
3302.57
3132.07
2982.08
2851.75
2740.1
2646.07
2568.52
2506.27
2458.15
2422.96
2399.58
2386.88
2383.83
2389.45
2402.85
2423.19
2449.74
2481.84
2518.92
2560.46
2606.05
2655.3
2707.91
2763.62
2822.21
2883.49
2947.3
3013.49
3081.93
3152.49
3225.01
3299.35
3375.33
3452.76
3531.4
3611.01
3691.28
3771.92
3852.56
3932.84
4012.36
4090.71
4167.46
4242.18
4314.46
4383.87
4450.03
4512.56
4571.13
4625.44
4675.23
4720.29
4760.47
4795.64
4825.75
4850.78
4870.76
4885.78
4895.93
4901.37
4902.26
4898.78
4891.14
4879.55
4864.2
4845.29
4823.01
4797.54
4769.03
4737.64
4703.48
4666.69
4627.38
4585.68
4541.71
4495.61
4447.54
4397.7
4346.3
4293.59
4239.87
4185.44
4130.68
4075.97
4021.71
3968.33
3916.26
3865.93
3817.76
3772.14
3729.43
3689.98
3654.07
3621.92
3593.73
3569.61
3549.63
3533.78
3522.02
3514.23
3510.24
3509.83
3512.75
3518.68
3527.28
3538.18
3550.99
3565.3
3580.68
3596.71
3612.96
3628.99
3644.39
3658.7
3671.42
3681.96
3689.45
3692.51
3688.76
3673.8
3639.42
3569.96
3435.62
3179.42
2692.4
1765.7
317.795
723.289
15000
15000
14999.9
14999.8
14999.6
14999.3
14998.8
14998.2
14997.3
14996
14994.2
14991.8
14988.6
14984.3
14978.6
14971.3
14961.8
14949.8
14934.6
14915.5
14891.9
14862.9
14827.6
14784.9
14733.8
14672.9
14601.2
14517.3
14420
14307.8
14179.5
14033.9
13869.9
13686.6
13483
13258.5
13012.9
12745.9
12457.8
12148.9
11820.1
11472.5
11107.4
10726.6
10331.9
9925.76
9510.44
9088.59
8662.9
8236.18
7811.22
7390.79
6977.59
6574.18
6182.95
5806.07
5445.47
5102.83
4779.53
4476.66
4195.02
3935.11
3697.18
3481.17
3286.83
3113.66
2961
2828.01
2713.73
2617.12
2537.04
2472.35
2421.85
2384.38
2358.79
2343.98
2338.91
2342.59
2354.12
2372.68
2397.52
2427.97
2463.45
2503.46
2547.55
2595.36
2646.56
2700.91
2758.17
2818.17
2880.75
2945.78
3013.11
3082.64
3154.22
3227.71
3302.95
3379.75
3457.9
3537.16
3617.24
3697.85
3778.64
3859.24
3939.26
4018.29
4095.89
4171.65
4245.11
4315.87
4383.51
4447.64
4507.91
4563.99
4615.62
4662.54
4704.59
4741.61
4773.52
4800.29
4821.92
4838.47
4850.04
4856.74
4858.74
4856.22
4849.37
4838.39
4823.5
4804.9
4782.79
4757.35
4728.77
4697.21
4662.83
4625.75
4586.14
4544.13
4499.87
4453.51
4405.24
4355.25
4303.78
4251.09
4197.46
4143.22
4088.73
4034.36
3980.52
3927.63
3876.09
3826.33
3778.75
3733.75
3691.67
3652.83
3617.51
3585.93
3558.26
3534.62
3515.05
3499.57
3488.09
3480.51
3476.65
3476.29
3479.15
3484.93
3493.3
3503.86
3516.24
3530.02
3544.78
3560.1
3575.55
3590.73
3605.21
3618.56
3630.3
3639.85
3646.36
3648.5
3643.93
3628.33
3593.6
3524.35
3391.28
3138.71
2661.77
1766.06
317.844
716.043
15000
15000
14999.9
14999.8
14999.6
14999.3
14998.8
14998.2
14997.3
14996
14994.2
14991.8
14988.6
14984.3
14978.7
14971.4
14961.9
14949.9
14934.8
14915.8
14892.3
14863.3
14828.1
14785.6
14734.5
14673.9
14602.4
14518.8
14421.7
14309.9
14182
14036.9
13873.3
13690.5
13487.5
13263.7
13018.7
12752.3
12464.9
12156.7
11828.6
11481.5
11117
10736.7
10342.6
9936.72
9521.63
9099.85
8674.09
8247.12
7821.72
7400.68
6986.66
6582.22
6189.75
5811.43
5449.21
5104.75
4779.45
4474.43
4190.5
3928.17
3687.71
3469.1
3272.1
3096.23
2940.84
2805.12
2688.14
2588.85
2506.16
2438.9
2385.9
2346.02
2318.1
2301.04
2293.81
2295.41
2304.95
2321.59
2344.58
2373.25
2407.01
2445.35
2487.83
2534.07
2583.76
2636.63
2692.46
2751.08
2812.33
2876.08
2942.21
3010.6
3081.13
3153.67
3228.06
3304.14
3381.7
3460.51
3540.31
3620.79
3701.63
3782.46
3862.9
3942.53
4020.93
4097.65
4172.26
4244.33
4313.42
4379.14
4441.11
4498.99
4552.48
4601.31
4645.27
4684.21
4718
4746.58
4769.95
4788.13
4801.19
4809.26
4812.47
4811
4805.03
4794.77
4780.43
4762.22
4740.35
4715.03
4686.45
4654.78
4620.22
4582.91
4543.04
4500.76
4456.23
4409.64
4361.19
4311.08
4259.56
4206.89
4153.38
4099.34
4045.13
3991.12
3937.71
3885.31
3834.32
3785.14
3738.18
3693.8
3652.35
3614.14
3579.42
3548.4
3521.26
3498.1
3478.95
3463.81
3452.61
3445.22
3441.47
3441.12
3443.9
3449.51
3457.59
3467.78
3479.68
3492.88
3506.97
3521.53
3536.15
3550.43
3563.94
3576.29
3587.01
3595.52
3601.03
3602.22
3596.8
3580.53
3545.47
3476.51
3344.89
3096.07
2626.95
1744.27
317.529
709.936
15000
15000
14999.9
14999.8
14999.6
14999.3
14998.8
14998.2
14997.3
14996
14994.2
14991.8
14988.6
14984.4
14978.7
14971.4
14962
14950.1
14934.9
14916
14892.5
14863.7
14828.6
14786.1
14735.3
14674.8
14603.6
14520.2
14423.4
14311.9
14184.3
14039.6
13876.6
13694.2
13491.8
13268.5
13024.2
12758.5
12471.7
12164.2
11836.8
11490.4
11126.5
10746.7
10353.1
9947.6
9532.78
9111.15
8685.38
8258.24
7832.5
7410.92
6996.17
6590.8
6197.19
5817.53
5453.76
5107.57
4780.36
4473.25
4187.08
3922.38
3679.43
3458.24
3258.57
3079.98
2921.85
2783.37
2663.62
2561.6
2476.2
2406.29
2350.7
2308.29
2277.92
2258.5
2248.98
2248.37
2255.78
2270.37
2291.38
2318.15
2350.06
2386.62
2427.37
2471.93
2519.98
2571.26
2625.56
2682.7
2742.51
2804.89
2869.71
2936.86
3006.24
3077.72
3151.17
3226.41
3303.28
3381.53
3460.93
3541.19
3621.98
3702.94
3783.7
3863.85
3942.96
4020.58
4096.27
4169.59
4240.1
4307.39
4371.04
4430.71
4486.07
4536.83
4582.75
4623.64
4659.37
4689.84
4715.02
4734.91
4749.57
4759.1
4763.62
4763.29
4758.3
4748.85
4735.15
4717.42
4695.89
4670.75
4642.23
4610.54
4575.85
4538.37
4498.28
4455.77
4411.02
4364.23
4315.62
4265.42
4213.86
4161.24
4107.86
4054.03
4000.11
3946.48
3893.51
3841.61
3791.17
3742.59
3696.25
3652.5
3611.69
3574.1
3539.98
3509.53
3482.91
3460.22
3441.47
3426.67
3415.72
3408.51
3404.83
3404.47
3407.14
3412.53
3420.3
3430.06
3441.44
3454.02
3467.4
3481.16
3494.9
3508.22
3520.74
3532.05
3541.7
3549.15
3553.62
3553.83
3547.54
3530.61
3495.24
3426.58
3296.46
3051.17
2588.1
1706.99
316.772
707.006
15000
15000
14999.9
14999.8
14999.6
14999.3
14998.8
14998.2
14997.3
14996
14994.3
14991.9
14988.7
14984.4
14978.8
14971.5
14962.1
14950.2
14935.1
14916.2
14892.8
14864.1
14829
14786.7
14736
14675.7
14604.6
14521.5
14424.9
14313.7
14186.6
14042.3
13879.7
13697.8
13495.9
13273.2
13029.5
12764.5
12478.3
12171.5
11844.7
11499
11135.8
10756.6
10363.4
9958.37
9543.87
9122.44
8696.74
8269.5
7843.51
7421.48
7006.09
6599.88
6205.24
5824.34
5459.13
5111.3
4782.27
4473.17
4184.83
3917.83
3672.45
3448.72
3246.42
3065.13
2904.24
2762.99
2640.46
2535.65
2447.49
2374.85
2316.6
2271.57
2238.65
2216.75
2204.82
2201.9
2207.06
2219.47
2238.38
2263.11
2293.07
2327.72
2366.62
2409.39
2455.7
2505.29
2557.95
2613.49
2671.78
2732.68
2796.09
2861.91
2930.03
3000.35
3072.74
3147.05
3223.11
3300.7
3379.6
3459.51
3540.14
3621.13
3702.11
3782.68
3862.4
3940.84
4017.54
4092.04
4163.91
4232.71
4298.02
4359.47
4416.69
4469.38
4517.28
4560.17
4597.88
4630.29
4657.34
4679.02
4695.36
4706.43
4712.35
4713.26
4709.35
4700.8
4687.84
4670.68
4649.56
4624.7
4596.33
4564.67
4529.94
4492.34
4452.09
4409.39
4364.46
4317.51
4268.77
4218.49
4166.93
4114.38
4061.14
4007.53
3953.92
3900.66
3848.14
3796.75
3746.86
3698.88
3653.16
3610.05
3569.87
3532.89
3499.37
3469.49
3443.38
3421.14
3402.78
3388.29
3377.58
3370.51
3366.88
3366.47
3369
3374.14
3381.54
3390.85
3401.66
3413.57
3426.19
3439.11
3451.93
3464.27
3475.75
3485.98
3494.54
3500.9
3504.3
3503.52
3496.35
3478.75
3443.05
3374.73
3246.06
3004.25
2548.67
1687.83
316.305
706.958
15000
15000
14999.9
14999.8
14999.6
14999.3
14998.8
14998.2
14997.3
14996
14994.3
14991.9
14988.7
14984.4
14978.8
14971.6
14962.2
14950.3
14935.2
14916.4
14893.1
14864.4
14829.4
14787.2
14736.7
14676.5
14605.6
14522.7
14426.4
14315.5
14188.7
14044.8
13882.6
13701.3
13499.9
13277.8
13034.6
12770.2
12484.8
12178.6
11852.5
11507.5
11144.8
10766.3
10373.6
9969.04
9554.91
9133.73
8708.15
8280.89
7854.71
7432.33
7016.4
6609.46
6213.88
5831.85
5465.31
5115.96
4785.21
4474.21
4183.81
3914.59
3666.86
3440.64
3235.77
3051.82
2888.21
2744.19
2618.86
2511.25
2420.3
2344.89
2283.9
2236.19
2200.64
2176.16
2161.74
2156.38
2159.18
2169.31
2186.01
2208.6
2236.47
2269.1
2306.05
2346.92
2391.38
2439.18
2490.1
2543.95
2600.6
2659.93
2721.83
2786.21
2852.98
2922.04
2993.27
3066.54
3141.68
3218.5
3296.77
3376.24
3456.59
3537.49
3618.58
3699.46
3779.69
3858.84
3936.46
4012.07
4085.23
4155.48
4222.4
4285.58
4344.65
4399.27
4449.15
4494.05
4533.77
4568.16
4597.15
4620.68
4638.76
4651.46
4658.86
4661.1
4658.35
4650.81
4638.67
4622.18
4601.56
4577.06
4548.92
4517.37
4482.66
4445.01
4404.66
4361.83
4316.76
4269.69
4220.86
4170.53
4118.99
4066.52
4013.43
3960.06
3906.76
3853.89
3801.81
3750.93
3701.6
3654.21
3609.1
3566.62
3527.07
3490.7
3457.76
3428.43
3402.81
3381.01
3363.02
3348.82
3338.32
3331.36
3327.75
3327.26
3329.6
3334.45
3341.45
3350.25
3360.46
3371.67
3383.48
3395.52
3407.38
3418.7
3429.1
3438.23
3445.67
3450.92
3453.24
3451.44
3443.38
3425.1
3389.1
3321.12
3193.95
2955.67
2507.26
1661.15
315.734
704.034
15000
15000
14999.9
14999.8
14999.6
14999.3
14998.8
14998.2
14997.3
14996
14994.3
14991.9
14988.7
14984.5
14978.9
14971.6
14962.3
14950.4
14935.4
14916.6
14893.3
14864.7
14829.9
14787.8
14737.3
14677.4
14606.7
14524
14427.9
14317.3
14190.9
14047.3
13885.6
13704.7
13503.8
13282.2
13039.7
12775.9
12491.1
12185.6
11860.2
11515.8
11153.8
10775.8
10383.7
9979.65
9565.91
9145.03
8719.63
8292.41
7866.12
7443.46
7027.07
6619.5
6223.1
5840.04
5472.28
5121.52
4789.16
4476.38
4184.03
3912.7
3662.7
3434.1
3226.72
3040.17
2873.89
2727.13
2599.03
2488.62
2394.87
2316.66
2252.9
2202.44
2164.2
2137.08
2120.07
2112.19
2112.54
2120.29
2134.67
2155.01
2180.7
2211.21
2246.09
2284.96
2327.48
2373.38
2422.46
2474.53
2529.45
2587.11
2647.41
2710.26
2775.58
2843.27
2913.24
2985.36
3059.47
3135.41
3212.94
3291.84
3371.8
3452.49
3533.57
3614.64
3695.27
3775.03
3853.46
3930.09
4004.45
4076.09
4144.55
4209.42
4270.29
4326.81
4378.66
4425.57
4467.32
4503.72
4534.68
4560.11
4580
4594.39
4603.35
4607
4605.51
4599.05
4587.83
4572.09