<?xml version="1.0"?>
<VTKFile type="PolyData" version="0.1" byte_order="LittleEndian">
  <PolyData>
    <Piece NumberOfPoints="50000" NumberOfVerts="50000" NumberOfLines="0" NumberOfStrips="0" NumberOfPolys="0">
      <Points>
        <DataArray type="Float32" NumberOfComponents="3" format="ascii">
0.465227 0.00939212 0
-0.442703 0.00302108 0
0.450953 -0.0035776 0
0.470849 -0.00299709 0
-0.38534 0.00697178 0
-0.32384 0.0021716 0
0.154772 -0.0306448 0
-0.397989 -0.000340694 0
0.13646 -0.0239678 0
-0.031902 0.010122 0
0.35378 -0.0151785 0
0.449002 0.0085062 0
-0.259669 0.00785936 0
-0.184691 -0.0288763 0
-0.483656 0.00232639 0
0.364815 0.0137834 0
-0.0679609 -0.00286548 0
0.467069 0.00138815 0
0.176869 0.0012257 0
-0.443335 0.00399385 0
-0.464405 0.00611557 0
0.404828 0.00737275 0
-0.458493 0.00264525 0
0.45526 -0.000549013 0
0.290032 -0.0152752 0
0.339301 0.0145961 0
-0.454836 -0.0091414 0
0.467573 -0.00448914 0
-0.325868 0.0270639 0
-0.478533 0.0102809 0
-0.360444 0.013739 0
-0.335273 -0.019613 0
0.463093 0.000399767 0
0.466273 -0.00174275 0
0.0884983 0.00557522 0
0.474078 -0.00243808 0
0.143698 0.00131654 0
-0.474469 0.00265611 0
-0.444342 -0.0064379 0
-0.493786 -0.00323997 0
0.342032 0.0148765 0
0.361466 0.0067184 0
-0.45322 -0.00303111 0
0.460157 0.0002914 0
0.476981 0.00101626 0
-0.466762 0.0098941 0
0.453371 0.00523902 0
0.232452 -0.0178805 0
0.447661 -0.000117716 0
0.458301 -0.000313335 0
0.192144 0.0246906 0
-0.457534 -0.00148597 0
-0.318406 0.010694 0
0.452313 0.00290039 0
-0.450507 0.00260042 0
-0.480283 0.00277572 0
0.465825 -0.00199135 0
0.187988 0.0131594 0
0.348465 0.00839513 0
0.480959 -0.00620308 0
0.392841 0.00513843 0
0.470767 0.00259723 0
0.10358 -0.0379119 0
0.480956 -0.00253313 0
-0.155566 0.0194134 0
-0.449102 0.00146263 0
0.457097 -0.00151996 0
0.469688 -0.00120062 0
0.485871 0.00426662 0
0.336245 0.000725205 0
-0.454504 0.00359961 0
0.456401 0.00391406 0
0.249072 0.00100529 0
0.254849 0.00756368 0
0.217235 0.00563432 0
-0.461045 -0.00309781 0
0.399279 0.0141566 0
-0.437868 0.00484695 0
0.352071 0.00762349 0
-0.479254 0.00172653 0
-0.242074 -0.0395249 0
-0.469452 0.0049522 0
0.431465 0.00551793 0
-0.456273 0.000603361 0
0.480365 -0.0059388 0
-0.457568 0.00369973 0
0.481223 -0.00582714 0
-0.206221 -0.0101372 0
-0.199582 0.0264478 0
-0.461361 -0.00841026 0
0.452256 0.00732832 0
-0.451317 -0.000868727 0
0.454658 -0.00246815 0
-0.311507 0.0224685 0
-0.0474076 -0.0255892 0
-0.406193 0.00593209 0
0.453669 0.00970175 0
-0.465383 0.00362511 0
-0.490881 0.00836371 0
-0.486962 -0.00133685 0
-0.408427 -0.00891826 0
-0.452988 -0.00666857 0
0.484436 -0.00110306 0
-0.196731 -0.0240993 0
0.487866 -0.000947878 0
0.399518 0.0143583 0
0.293629 0.00742079 0
0.0232634 0.0088794 0
0.448477 0.00491529 0
-0.459067 -0.00549222 0
-0.346598 0.0225381 0
-0.465829 0.00352192 0
-0.397762 0.0120013 0
345.313 499.514 0
0.305834 0.00820609 0
-0.459142 0.00398089 0
-0.476091 0.00497127 0
8.87498 12.1407 0
-0.462392 0.0017712 0
-0.0239728 -0.0102947 0
0.467748 -0.00196475 0
-0.44601 -0.00451051 0
0.315597 -0.00432662 0
-0.426678 0.00838526 0
0.459177 -0.00110334 0
0.446267 -0.00140327 0
0.146585 0.0273626 0
0.471805 0.00480088 0
-0.413854 -0.0081196 0
0.356027 -0.00133007 0
0.474389 -0.00396924 0
0.470625 -0.000782535 0
-0.488976 0.000712479 0
-0.407987 0.00449658 0
0.481904 -0.0023904 0
0.45802 -0.00149608 0
0.441753 -0.00352059 0
-0.0740444 0.0033982 0
0.36945 -0.0165936 0
0.359394 -0.0139835 0
0.369293 -0.0168565 0
0.438291 0.0108268 0
0.473373 -0.00421603 0
-0.110532 -0.0163332 0
-0.47397 0.00760016 0
0.314507 -0.0262094 0
-0.303916 0.0228955 0
-0.467605 0.0021321 0
-0.334778 -0.0231354 0
-0.469056 0.00408345 0
0.357338 0.00826248 0
0.454938 0.00232578 0
-0.142869 -0.0138379 0
0.370579 -0.012143 0
0.368528 0.00938289 0
0.451074 0.00418892 0
0.308951 -0.0114376 0
-0.459599 0.00303719 0
-0.198768 -0.00711697 0
0.47202 -0.000744519 0
0.315355 -0.002172 0
-0.417078 -0.00361276 0
-0.451572 0.00273029 0
-0.469492 0.00280738 0
-0.121872 0.0112872 0
0.363664 -0.00757111 0
0.411069 -0.00673067 0
0.416424 0.00396823 0
0.347878 0.00882832 0
-0.193381 0.000433137 0
0.4862 -0.00596219 0
-0.450139 0.00339862 0
-0.107293 -0.00704405 0
0.469807 0.00469409 0
-0.0864357 -0.00423431 0
-0.36383 0.0179019 0
-0.451355 0.00267985 0
-0.275076 -0.0129578 0
-0.457532 -0.00288084 0
-0.459506 -0.00779365 0
0.450472 -0.000415942 0
-0.464812 0.00720648 0
-0.457765 0.00604691 0
0.465013 0.00584977 0
0.453743 -0.00136919 0
0.350984 -0.0202536 0
0.487236 -0.00426864 0
0.482164 0.000185027 0
0.467431 -0.00458382 0
0.0519972 0.0338937 0
0.475418 -0.00454633 0
0.385084 -0.0108203 0
-0.310764 -0.0214424 0
0.428647 0.0071123 0
-0.425514 0.00712088 0
0.45036 0.00169293 0
-0.379264 0.0133098 0
-0.404017 0.0058898 0
-0.453298 0.00423074 0
0.455985 0.00538409 0
-0.30318 0.0216318 0
0.480939 0.00282089 0
0.417165 -0.00661348 0
-0.0956673 -0.00845192 0
0.487002 -0.0060794 0
-0.446645 -0.00945165 0
0.0632034 0.0550754 0
0.192917 -0.00796526 0
-0.404719 0.0121201 0
-0.285413 -0.0120011 0
0.445964 0.000347253 0
-0.199359 -0.0245009 0
0.420337 -0.00453559 0
-0.391156 0.0124835 0
-0.268454 -0.0185237 0
-0.46942 0.00678502 0
-0.463164 0.00867226 0
0.462249 -0.000661284 0
-0.476252 -0.00187064 0
-0.0564192 0.0240131 0
-0.366515 0.0133046 0
-0.475216 0.00396287 0
-0.441412 -0.00764804 0
0.482946 -0.00373428 0
0.171002 0.028262 0
-0.451617 0.00327746 0
0.485566 0.000993444 0
0.4657 -0.00129358 0
-0.401609 0.0110309 0
-0.473194 -0.000930005 0
-0.465662 -0.00467109 0
0.452974 0.00458562 0
0.236193 0.0270111 0
-0.0723414 0.0170742 0
-0.482025 0.00487846 0
-0.415153 0.00655801 0
0.356434 -0.0205661 0
-0.36558 -0.00542531 0
-0.460703 0.00359916 0
0.282157 -0.00368861 0
0.476625 -0.000365117 0
-0.422901 -0.00809207 0
-0.46594 0.0036488 0
-0.269986 -0.0164892 0
0.23268 0.00760774 0
0.416247 0.00452453 0
-0.4401 0.00787748 0
0.466103 -0.00128967 0
0.480039 0.00275703 0
0.275252 0.0142151 0
0.287086 0.00476206 0
-0.438227 0.0055901 0
0.450414 -0.00371618 0
-0.207764 -0.0111565 0
-0.423999 0.00914561 0
0.451025 -0.00065015 0
-0.410969 0.00891184 0
0.39938 0.0100938 0
0.173019 0.0267823 0
0.249525 1.20624e-06 0
0.47977 0.000731069 0
-0.438065 0.00539038 0
0.0874256 -0.00983761 0
0.0435642 -0.0164566 0
-0.312648 0.00368483 0
-0.45997 0.000975513 0
-0.453057 0.00312088 0
-0.449792 -0.00186776 0
0.461986 -0.00151884 0
0.458502 -0.00125473 0
0.472274 -0.00142922 0
-0.464057 -0.00356304 0
0.302997 0.00325215 0
0.0248356 0.0141912 0
-0.484747 0.00556273 0
-0.47137 0.00238816 0
0.448698 -0.000785119 0
-0.450525 0.00321774 0
0.445707 0.00720923 0
-0.457008 -0.00193772 0
-0.443322 -0.000427279 0
-0.20564 -0.0267867 0
-0.46431 0.00258865 0
0.438149 -0.00285327 0
-0.394804 0.0121239 0
-0.44469 -0.00398901 0
-0.176771 0.0227079 0
-0.462902 0.00352534 0
-0.470292 0.00413753 0
0.395153 -0.00389343 0
-0.165396 0.00755927 0
0.461353 -0.00142039 0
0.471487 -0.00369646 0
0.300672 0.0157536 0
0.479039 0.00350565 0
0.454583 0.00682917 0
0.477212 0.00455237 0
-0.318589 0.0266544 0
-0.434871 0.00211785 0
-0.483569 0.00081009 0
0.489335 0.000725305 0
-0.0657915 0.00823902 0
0.459837 -0.0023746 0
0.448712 0.0034652 0
0.473536 -0.00119778 0
0.0809095 0.0137972 0
-0.244347 0.0286132 0
0.398811 0.00589543 0
-0.0562756 0.000177594 0
-0.227423 0.0105126 0
-0.380477 0.013058 0
0.46111 0.00733421 0
-0.336935 0.0165078 0
0.426957 -0.0065163 0
0.351805 -0.00579486 0
-0.481899 0.00699668 0
0.375423 -0.0172919 0
0.484252 -0.00634377 0
0.433028 -0.0038057 0
0.462652 0.00820814 0
-0.470151 0.00594985 0
-0.103443 0.0170897 0
0.472299 0.00207347 0
0.470045 -0.00142345 0
0.2169 0.0283239 0
-0.448579 -0.00076043 0
-0.440222 0.00555033 0
0.483932 0.00024054 0
-0.45008 -0.00375347 0
0.466604 0.0025343 0
0.469983 -0.00314891 0
0.225083 -0.0273458 0
0.450332 0.00374105 0
-0.46179 0.00358075 0
-0.395232 -0.000970149 0
-0.265541 -0.00319401 0
0.0369792 -0.00923108 0
0.0559032 -0.0342145 0
-0.423629 0.00363694 0
0.209372 -0.030337 0
-0.0497728 0.0465905 0
-0.476749 0.00678532 0
-0.340952 0.0154605 0
-0.465452 0.00489786 0
-0.193252 -0.0159448 0
0.469642 0.00759164 0
-0.331115 0.0174005 0
-0.471041 -0.000285529 0
-76.6429 317.012 0
0.468649 -0.00638952 0
0.46747 -0.00160306 0
-0.384165 0.016072 0
0.454398 0.00309799 0
0.431153 -0.00147556 0
-683.607 -1222.52 0
0.143223 0.0166115 0
-0.466245 0.00406879 0
-0.387912 -0.00309828 0
0.464216 0.00376958 0
4.82224 -9.93502 0
0.439422 0.00545945 0
-0.456279 -0.00713921 0
-0.291608 5.1517e-05 0
-0.463378 -0.00399368 0
-0.472468 0.00755292 0
0.460714 -0.00147156 0
-0.479977 -0.001879 0
-0.416199 0.0103351 0
0.361637 0.0142104 0
-0.452292 -0.000150651 0
-0.377117 0.0160886 0
-0.418267 0.00923083 0
0.465559 0.00456917 0
0.419756 -0.00833651 0
-0.278728 0.0217265 0
0.478534 -0.00270111 0
-0.466442 -0.00671514 0
-0.434153 -0.0044211 0
-0.471504 0.00125366 0
0.040522 -0.0362532 0
-0.453918 -0.00636134 0
0.459036 0.00460273 0
-0.462775 0.00402964 0
-0.460182 0.00209249 0
-0.113737 0.017205 0
0.300699 0.0155372 0
-0.150864 0.0418398 0
0.0988074 0.0235694 0
-0.466873 0.00430886 0
-0.084746 0.00393605 0
-0.46769 -0.00131239 0
-0.470143 0.00613499 0
0.448721 -0.00702155 0
0.395434 0.010609 0
-0.439973 0.00718493 0
0.41691 0.00533184 0
0.414267 0.00129964 0
-0.448662 0.00332368 0
-0.247938 -0.00839846 0
0.327774 -0.0201429 0
-0.449121 0.000775096 0
0.39692 -0.0105355 0
0.181546 -0.00578539 0
-0.461797 -0.00134499 0
0.431161 -0.000969803 0
0.453575 -0.0029445 0
0.460504 -0.00571899 0
0.469183 -0.0020671 0
0.477199 -0.000231597 0
0.452118 0.00766687 0
-0.464707 0.00300263 0
0.333797 0.0109219 0
-0.384137 -0.00601849 0
0.219262 0.0306319 0
-0.437542 0.00295382 0
-0.156606 -0.00666387 0
-0.363047 0.0133581 0
0.132148 -0.0164037 0
-0.474391 0.00431889 0
0.452812 -0.00149634 0
-0.128188 0.0339258 0
0.162093 0.0177405 0
-0.48078 0.00371424 0
0.456052 0.00190271 0
0.470174 -0.00104677 0
0.449246 0.00970812 0
0.480119 -0.00565075 0
-0.458393 0.00356843 0
-0.472888 0.00271962 0
0.466858 -0.00200377 0
[...]
      <PointData Scalars="T">
        <DataArray type="Float32" Name="T" format="ascii" NumberOfComponents="1">
317.411
456.911
316.396
316.396
456.911
456.911
316.396
470.965
316.396
456.911
316.396
317.411
456.911
470.965
456.911
317.411
470.965
309.221
305.75
456.911
456.911
317.411
456.911
316.396
316.396
317.411
470.965
316.396
456.911
456.911
456.911
470.965
313.757
316.396
317.411
316.396
306.137
456.911
470.965
470.965
317.411
317.411
470.965
319.368
302.47
456.911
317.411
316.396
316.396
316.396
317.411
470.965
456.911
317.411
456.911
456.911
316.396
317.411
317.411
316.396
317.411
317.411
316.396
316.396
456.911
972.211
316.396
316.396
317.411
305.504
456.911
317.411
302.997
317.411
317.411
470.965
317.411
456.911
317.411
864.477
470.965
456.911
317.411
853.466
316.396
456.911
316.396
470.965
456.911
470.965
317.411
470.965
316.396
456.911
470.965
456.911
317.411
456.911
456.911
470.965
470.965
470.965
316.396
470.965
316.396
317.411
317.411
317.411
317.411
470.965
456.911
456.911
456.911
317.411
317.411
456.911
456.911
317.411
882.301
470.965
316.396
470.965
316.396
456.911
316.396
316.396
317.411
317.411
470.965
316.396
316.396
316.396
1020.92
456.911
316.396
316.396
316.396
456.911
316.396
316.396
316.396
317.411
316.396
470.965
456.911
316.396
456.911
456.911
470.965
456.911
317.411
317.411
470.965
316.396
317.411
317.411
316.396
456.911
470.965
316.396
316.396
470.965
456.911
456.911
456.911
316.396
316.396
317.411
317.411
880.421
316.396
456.911
470.965
317.411
470.965
456.911
456.911
470.965
470.965
470.965
316.396
456.911
456.911
317.411
316.396
316.396
316.396
326.582
316.396
317.411
316.396
316.396
470.965
317.411
456.911
324.327
456.911
456.911
456.911
317.411
456.911
317.411
316.396
470.965
316.396
470.965
317.411
316.396
456.911
470.965
317.579
470.965
316.396
456.911
470.965
456.911
456.911
316.396
470.965
456.911
456.911
456.911
470.965
316.396
317.411
456.911
302.85
316.396
456.911
470.965
470.965
317.411
317.411
456.911
456.911
456.911
316.396
470.965
456.911
316.396
316.396
470.965
456.911
470.965
317.411
317.411
456.911
316.396
317.411
317.411
317.411
456.911
316.396
470.965
456.911
316.396
456.911
317.411
317.411
316.396
305.412
456.911
316.396
316.396
456.911
886.391
456.911
470.965
316.396
316.396
316.396
470.965
317.411
317.411
456.911
456.911
316.396
456.911
317.411
470.965
470.965
470.965
456.911
316.396
456.911
470.965
456.911
456.911
456.911
316.396
456.911
316.396
316.396
317.411
317.411
317.411
317.411
456.911
456.911
892.001
305.504
456.911
316.396
317.411
316.396
317.411
456.911
317.411
845.155
456.911
456.911
317.411
456.911
316.396
316.396
456.911
316.396
316.396
316.396
317.411
456.911
456.911
317.411
316.396
317.411
470.965
456.911
322.102
470.965
317.411
316.396
316.396
317.411
456.911
470.965
470.965
316.396
316.396
456.911
316.396
456.911
456.911
456.911
456.911
470.965
317.411
456.911
470.965
456.911
316.396
316.396
456.911
317.411
316.396
470.965
317.411
456.911
470.965
317.411
316.396
317.411
470.965
850.738
470.965
456.911
316.396
470.965
456.911
317.411
470.965
456.911
456.911
317.411
316.396
456.911
316.396
470.965
470.965
974.357
316.396
470.965
317.411
456.911
456.911
456.911
317.411
456.911
317.411
456.911
456.911
470.965
456.911
316.396
317.411
456.911
317.411
305.923
456.911
470.965
316.396
874.795
316.396
316.396
470.965
316.396
316.396
316.396
316.396
316.396
317.411
456.911
317.411
470.965
317.411
456.911
470.965
456.911
316.396
456.911
316.396
456.911
317.411
456.911
341.602
316.396
317.411
316.396
456.911
456.911
316.396
456.911
317.411
456.911
317.411
979.34
470.965
456.911
456.911
317.411
308.317
456.911
316.396
817.562
470.965
470.965
456.911
470.965
317.411
316.396
470.965
317.411
470.965
470.965
316.396
316.396
470.965
456.911
863.876
470.965
309.237
470.965
329.763
456.911
470.965
316.396
317.411
470.965
470.965
456.911
456.911
317.411
873.258
316.396
316.396
317.411
456.911
456.911
456.911
316.396
317.411
470.965
470.965
470.965
456.911
306.453
317.411
316.396
304.238
456.911
317.411
317.411
302.851
456.911
317.411
316.396
470.965
316.396
456.911
456.911
456.911
470.965
470.965
470.965
470.965
470.965
316.396
316.396
316.396
317.411
316.396
317.411
317.411
470.965
317.411
456.911
316.396
317.411
456.911
317.411
456.911
868.511
456.911
859.799
317.411
316.396
317.411
316.396
316.396
316.396
456.911
317.411
317.411
819.613
317.411
832.194
456.911
470.965
316.396
316.396
456.911
456.911
470.965
470.965
470.965
317.411
317.411
317.411
317.411
470.965
456.911
317.411
456.911
316.871
317.411
470.965
456.911
316.396
456.911
317.411
317.411
470.965
317.411
470.965
316.396
919.525
456.911
305.76
316.396
470.965
470.965
905.285
456.911
456.911
317.411
316.396
316.396
306.982
317.411
470.965
866.801
470.965
470.965
456.911
317.411
316.396
456.911
317.411
470.965
302.742
317.411
331.696
456.911
317.411
470.965
977.461
317.411
316.396
470.965
317.411
456.911
316.396
316.396
317.411
316.396
470.965
470.965
456.911
993.241
317.411
470.965
316.396
470.965
470.965
317.411
316.396
470.965
470.965
456.911
456.911
316.396
316.396
456.911
470.965
470.965
317.411
316.396
456.911
456.911
316.396
316.396
317.411
317.411
456.911
470.965
470.965
470.965
470.965
317.411
456.911
317.411
317.411
470.965
456.911
316.396
316.396
470.965
456.911
316.396
470.965
470.965
456.911
316.396
470.965
456.911
317.411
456.911
456.911
316.396
317.411
456.911
317.411
316.396
456.911
317.411
316.396
456.911
456.911
316.396
316.396
316.396
317.411
317.411
470.965
470.965
456.911
456.911
317.411
456.911
470.965
312.089
317.411
456.911
456.911
456.911
316.396
317.411
317.411
317.411
456.911
316.396
316.396
919.89
456.911
317.411
316.396
317.411
317.411
317.411
456.911
317.411
317.411
316.396
456.911
317.411
456.911
316.396
317.411
316.396
317.411
316.396
456.911
317.411
456.911
317.411
456.911
456.911
456.911
316.396
470.965
317.411
456.911
316.396
317.411
470.965
316.396
924.288
470.965
470.965
456.911
456.911
456.911
316.396
316.396
316.396
316.396
316.396
837.786
317.411
456.911
470.965
316.396
316.396
456.911
309.237
456.911
317.411
456.911
456.911
456.911
470.965
470.965
311.749
456.911
317.411
456.911
470.965
456.911
470.965
470.965
316.396
317.411
316.396
456.911
470.965
456.911
456.911
470.965
456.911
470.965
317.411
456.911
470.965
316.396
316.396
316.396
456.911
456.911
470.965
317.411
470.965
306.137
456.911
470.965
470.965
317.411
316.396
317.411
322.013
316.396
456.911
456.911
316.396
456.911
317.411
456.911
317.411
456.911
470.965
317.411
456.911
316.713
456.911
456.911
316.396
305.76
470.965
317.411
316.396
312.778
317.411
456.911
470.965
470.965
317.411
456.911
321.315
317.411
316.396
316.396
470.965
456.911
327.503
456.911
456.911
316.396
316.396
317.411
316.396
456.911
470.965
317.411
456.911
317.411
317.411
456.911
456.911
317.411
1006.24
316.396
316.396
456.911
456.911
316.396
311.322
456.911
470.965
470.965
317.411
314.777
862.557
456.911
456.911
858.448
470.965
316.396
456.911
316.396
456.911
316.396
316.396
889.726
316.396
456.911
317.411
316.396
456.911
470.965
317.411
316.396
317.411
317.411
317.411
317.411
456.911
317.411
316.396
470.965
316.396
317.411
456.911
316.396
316.396
317.411
456.911
456.911
470.965
316.396
470.965
316.396
470.965
456.911
456.911
317.411
470.965
470.965
470.965
316.396
908.706
456.911
316.396
317.411
470.965
470.965
316.396
456.911
316.396
316.396
470.965
317.411
470.965
317.411
316.396
317.411
316.396
317.411
317.411
456.911
317.411
316.396
316.396
456.911
316.396
470.965
456.911
470.965
316.396
317.411
456.911
470.965
456.911
316.396
456.911
456.911
316.396
316.396
317.411
317.411
456.911
456.911
316.396
456.911
317.411
456.911
470.965
316.713
470.965
316.396
456.911
470.965
456.911
456.911
456.911
848.239
470.965
456.911
456.911
317.411
456.911
316.396
316.396
316.396
316.396
317.411
456.911
316.396
456.911
317.411
456.911
317.411
317.411
470.965
317.411
456.911
316.396
317.411
316.396
470.965
316.396
456.911
309.027
470.965
470.965
317.411
470.965
456.911
456.911
470.965
316.396
317.411
317.411
317.411
470.965
316.396
470.965
316.396
326.292
317.411
317.411
317.411
316.396
316.396
470.965
317.411
317.411
470.965
456.911
316.396
456.911
302.851
456.911
470.965
456.911
861.44
470.965
456.911
317.411
470.965
317.411
456.911
316.396
456.911
317.411
456.911
456.911
317.411
317.411
456.911
316.396
317.411
316.396
316.871
470.965
456.911
470.965
1021.26
316.396
456.911
316.396
456.911
456.911
316.396
316.396
456.911
317.411
316.396
316.396
316.396
456.911
316.396
317.411
456.911
456.911
456.911
470.965
456.911
316.396
456.911
316.396
470.965
341.046
316.396
317.411
456.911
470.965
470.965
456.911
316.396
317.411
470.965
316.396
304.665
470.965
470.965
316.396
456.911
309.221
316.396
317.411
470.965
456.911
456.911
456.911
317.411
943.722
317.411
456.911
456.911
316.396
317.411
317.411
316.396
317.411
470.965
926.459
470.965
456.911
316.396
317.411
317.411
317.411
317.411
317.411
470.965
456.911
456.911
456.911
470.965
456.911
456.911
316.396
316.396
316.396
316.396
316.396
456.911
316.396
456.911
312.089
470.965
456.911
317.411
456.911
1006.2
316.396
982.609
316.396
316.396
316.396
316.396
317.411
317.411
316.396
317.411
470.965
302.674
456.911
317.411
317.411
316.396
470.965
316.396
470.965
317.411
317.411
317.411
317.411
456.911
316.396
456.911
317.411
316.396
316.396
963.32
963.203
965.447
316.396
316.396
470.965
317.411
456.911
317.411
316.396
470.965
456.911
826.567
316.396
317.411
456.911
316.396
456.911
317.411
456.911
456.911
861.565
456.911
316.396
316.396
470.965
456.911
456.911
456.911
316.396
470.965
317.411
456.911
317.411
317.411
456.911
456.911
317.411
456.911
316.396
316.396
316.396
456.911
317.189
316.396
470.965
456.911
316.396
456.911
316.396
456.911
456.911
316.396
470.965
470.965
316.396
316.396
317.411
316.396
317.411
470.965
317.411
317.411
456.911
456.911
316.396
456.911
317.411
302.47
861.44
456.911
317.411
965.884
829.377
304.477
316.396
470.965
456.911
316.396
456.911
456.911
470.965
470.965
456.911
316.396
316.396
456.911
456.911
316.396
470.965
316.396
317.411
317.411
456.911
456.911
316.396
829.377
317.411
456.911
317.411
316.396
456.911
316.396
316.396
470.965
456.911
470.965
470.965
456.911
456.911
456.911
456.911
317.411
316.396
316.396
456.911
316.396
456.911
456.911
316.396
456.911
456.911
317.411
456.911
470.965
316.396
470.965
470.965
317.411
456.911
317.411
317.411
316.396
316.396
456.911
317.411
314.812
456.911
456.911
317.411
456.911
456.911
330.153
316.396
316.396
470.965
316.396
456.911
322.123
316.396
940.234
456.911
456.911
316.396
316.396
456.911
456.911
456.911
470.965
317.411
470.965
316.396
470.965
470.965
316.396
317.411
316.396
470.965
317.411
316.396
317.411
883.139
316.396
905.537
470.965
456.911
456.911
850.738
470.965
470.965
317.411
317.411
470.965
456.911
456.911
316.396
456.911
456.911
456.911
470.965
470.965
316.396
316.396
317.411
456.911
317.411
317.411
316.396
470.965
316.396
338.822
317.411
309.757
317.411
456.911
918.628
961.011
456.911
456.911
316.396
470.965
470.965
317.411
456.911
470.965
456.911
862.104
456.911
456.911
470.965
316.396
470.965
470.965
456.911
470.965
456.911
316.396
470.965
456.911
316.396
316.396
316.396
470.965
470.965
456.911
317.411
456.911
470.965
327.503
456.911
456.911
456.911
317.411
456.911
317.411
317.411
316.396
470.965
316.396
315.385
470.965
943.722
316.396
317.411
470.965
456.911
456.911
316.396
456.911
470.965
456.911
317.411
317.411
316.396
317.411
470.965
456.911
456.911
316.396
317.411
456.911
317.411
317.411
470.965
470.965
470.965
317.411
317.411
317.411
456.911
317.411
908.706
317.411
456.911
456.911
456.911
317.411
316.396
316.396
316.396
470.965
316.396
316.396
884.441
456.911
317.411
317.411
316.396
456.911
316.396
456.911
316.396
317.411
316.396
306.198
470.965
456.911
470.965
317.411
316.396
316.396
316.396
456.911
317.411
456.911
317.411
316.396
317.411
470.965
316.396
456.911
317.411
317.411
316.396
470.965
316.396
316.396
316.396
316.396
317.411
926.459
317.411
316.396
456.911
470.965
470.965
833.605
456.911
456.911
831.346
456.911
316.396
316.396
470.965
317.411
456.911
456.911
456.911
316.396
470.965
470.965
317.411
316.396
317.411
317.411
317.411
456.911
317.411
317.411
316.396
317.411
456.911
319.536
899.871
470.965
470.965
316.396
470.965
456.911
456.911
456.911
456.911
456.911
924.89
456.911
317.411
317.411
316.396
456.911
316.396
456.911
316.396
317.411
456.911
303.332
316.396
317.411
317.411
316.396
871.722
316.396
307.737
456.911
317.411
456.911
317.411
456.911
316.396
316.396
456.911
456.911
470.965
456.911
470.965
456.911
316.396
316.396
316.396
470.965
317.411
456.911
316.396
470.965
317.411
456.911
456.911
470.965
456.911
316.396
316.396
470.965
316.396
317.411
470.965
456.911
316.396
317.411
456.911
317.411
317.411
316.396
316.396
316.396
470.965
456.911
470.965
470.965
317.411
316.396
317.411
305.994
316.396
456.911
957.993
470.965
316.396
307.355
316.396
316.396
456.911
316.396
317.411
317.411
317.411
316.396
317.411
456.911
456.911
456.911
317.411
456.911
456.911
316.396
305.181
316.396
302.46
456.911
317.411
456.911
317.411
317.411
456.911
316.396
470.965
470.965
470.965
316.396
470.965
470.965
456.911
470.965
470.965
456.911
470.965
470.965
888.252
316.396
456.911
456.911
317.411
317.411
316.396
316.396
317.411
456.911
456.911
317.411
470.965
470.965
317.411
456.911
470.965
317.411
317.411
316.396
456.911
456.911
316.396
456.911
456.911
316.396
470.965
305.514
316.396
316.396
316.396
456.911
456.911
456.911
316.396
456.911
456.911
456.911
456.911
470.965
456.911
317.411
470.965
456.911
456.911
317.411
456.911
316.396
456.911
873.914
317.411
456.911
470.965
316.396
316.396
470.965
470.965
944.756
316.396
855.575
456.911
829.377
470.965
456.911
470.965
470.965
317.411
316.396
470.965
456.911
316.396
317.411
316.396
470.965
316.396
316.396
317.411
317.411
456.911
470.965
456.911
456.911
317.411
456.911
317.411
456.911
470.965
470.965
316.396
302.839
470.965
456.911
316.396
873.914
317.411
316.396
317.411
316.396
316.396
317.411
456.911
470.965
470.965
456.911
316.396
316.396
470.965
316.396
861.135
456.911
456.911
470.965
456.911
317.411
316.396
456.911
470.965
317.411
317.411
456.911
316.396
456.911
316.396
316.396
316.396
456.911
317.411
316.396
316.396
317.411
470.965
302.814
470.965
470.965
316.396
316.396
470.965
456.911
317.411
316.396
316.396
470.965
470.965
456.911
317.411
317.411
470.965
317.411
316.396
917.348
316.396
317.411
456.911
470.965
470.965
456.911
456.911
456.911
456.911
456.911
317.411
470.965
305.412
470.965
470.965
317.411
456.911
456.911
456.911
470.965
316.396
456.911
470.965
317.411
456.911
854.402
456.911
317.411
316.396
317.411
316.396
470.965
470.965
456.911
470.965
456.911
456.911
470.965
456.911
456.911
316.396
317.411
317.411
328.164
313.101
470.965
470.965
317.411
317.411
470.965
470.965
456.911
316.396
456.911
456.911
456.911
316.396
456.911
316.396
317.411
310.045
316.396
456.911
317.411
456.911
456.911
470.965
317.411
456.911
317.411
307.254
317.411
316.396
456.911
470.965
316.396
316.396
305.994
317.411
317.411
316.396
470.965
316.396
316.396
456.911
956.343
456.911
316.396
316.396
316.396
456.911
456.911
456.911
317.411
456.911
317.411
818.108
340.997
316.396
316.396
316.396
456.911
317.411
470.965
338.822
316.396
317.411
456.911
470.965
470.965
456.911
470.965
470.965
317.411
456.911
470.965
316.396
316.396
317.411
456.911
456.911
470.965
470.965
317.411
456.911
470.965
470.965
317.411
456.911
943.722
316.396
456.911
317.411
470.965
316.396
456.911
470.965
317.411
456.911
316.396
470.965
456.911
316.396
317.411
470.965
456.911
456.911
316.396
456.911
470.965
316.396
470.965
317.411
317.411
993.013
317.411
316.396
316.396
316.396
317.9
470.965
316.396
317.411
893.606
317.411
456.911
470.965
470.965
456.911
470.965
316.396
470.965
317.411
317.411
317.411
316.396
317.411
316.396
316.396
317.411
470.965
317.411
317.411
470.965
316.396
316.396
317.411
304.836
470.965
316.396
316.396
470.965
317.411
470.965
470.965
316.396
456.911
456.911
316.396
456.911
317.411
317.9
317.411
316.396
316.396
316.396
316.396
316.396
307.935
456.911
470.965
976.292
317.411
316.396
456.911
316.396
316.396
470.965
316.396
317.411
316.396
316.396
316.396
456.911
317.411
316.396
456.911
316.396
470.965
317.411
316.396
317.411
456.911
470.965
317.411
456.911
456.911
316.396
316.396
316.396
456.911
317.411
303.046
456.911
456.911
316.396
316.396
317.411
470.965
470.965
470.965
316.396
317.411
316.396
470.965
456.911
316.396
316.396
317.411
317.411
316.396
456.911
317.411
470.965
317.411
456.911
456.911
317.411
317.411
456.911
817.562
317.411
470.965
951.064
864.365
886.391
456.911
456.911
470.965
316.396
316.396
470.965
317.411
470.965
317.411
316.396
470.965
316.396
316.396
456.911
316.396
790.464
817.671
456.911
456.911
317.411
317.411
316.396
470.965
316.396
470.965
316.396
316.396
456.911
470.965
456.911
330.153
314.812
317.411
316.396
470.965
316.396
456.911
316.396
456.911
316.396
456.911
456.911
317.411
316.396
470.965
316.396
456.911
317.411
456.911
470.965
470.965
470.965
316.396
456.911
470.965
861.565
470.965
470.965
316.396
456.911
316.396
316.396
317.411
316.396
317.411
316.396
456.911
470.965
845.155
317.411
317.411
456.911
316.396
316.396
316.396
316.396
456.911
456.911
317.411
317.411
316.396
316.396
895.123
302.997
470.965
456.911
456.911
316.396
456.911
304.665
470.965
316.396
456.911
470.965
317.411
456.911
317.411
316.396
317.411
951.943
470.965
317.411
316.396
316.396
316.396
317.411
470.965
317.411
316.396
456.911
316.396
317.411
316.396
470.965
317.411
317.411
470.965
456.911
861.565
316.396
316.396
456.911
456.911
1006.2
470.965
316.396
316.396
456.911
470.965
316.396
470.965
456.911
456.911
316.396
317.411
470.965
915.855
470.965
316.396
470.965
470.965
317.411
317.411
317.411
317.411
456.911
470.965
470.965
470.965
317.411
316.396
317.411
316.396
456.911
456.911
456.911
456.911
470.965
456.911
456.911
320.776
317.411
316.396
316.396
470.965
470.965
456.911
456.911
456.911
316.396
829.377
317.411
317.411
316.396
470.965
470.965
316.396
317.411
316.396
470.965
317.411
456.911
456.911
316.396
316.396
316.396
316.396
317.411
317.411
317.411
317.411
316.396
316.396
456.911
316.396
456.911
317.411
456.911
456.911
456.911
316.396
316.396
960.038
317.411
456.911
470.965
456.911
470.965
316.396
456.911
876.005
316.396
304.392
470.965
456.911
456.911
874.238
316.396
316.396
316.396
470.965
304.299
330.853
316.396
957.073
470.965
316.396
317.411
317.411
317.411
316.396
317.411
470.965
316.396
302.64
317.411
456.911
456.911
456.911
456.911
456.911
316.396
470.965
949.664
456.911
456.911
456.911
317.411
316.396
316.396
456.911
316.396
316.396
316.396
316.396
317.411
456.911
456.911
470.965
316.396
456.911
316.396
470.965
316.396
858.448
852.466
456.911
317.411
470.965
470.965
317.411
470.965
324.985
456.911
316.396
317.411
317.411
962.391
317.411
456.911
470.965
316.396
456.911
316.396
316.396
317.411
317.411
317.411
456.911
317.411
918.628
470.965
309.237
470.965
470.965
895.123
316.396
456.911
456.911
456.911
316.396
470.965
456.911
317.411
316.396
316.396
470.965
456.911
302.769
456.911
456.911
317.411
470.965
456.911
470.965
456.911
470.965
456.911
456.911
321.569
317.411
456.911
470.965
316.396
316.396
470.965
456.911
317.411
316.396
317.411
456.911
456.911
316.396
470.965
456.911
470.965
313.101
316.396
316.396
317.411
317.411
317.411
317.411
316.396
456.911
470.965
864.477
863.876
470.965
456.911
317.411
456.911
317.411
316.396
456.911
316.396
317.411
470.965
470.965
314.812
456.911
456.911
317.411
456.911
456.911
456.911
456.911
470.965
456.911
470.965
456.911
456.911
317.411
470.965
470.965
456.911
470.965
317.411
333.9
317.411
317.411
456.911
470.965
316.396
456.911
456.911
470.965
316.396
316.396
456.911
470.965
317.411
316.396
470.965
456.911
470.965
470.965
456.911
316.396
456.911
470.965
317.411
317.411
456.911
470.965
316.396
316.396
456.911
470.965
456.911
456.911
957.073
316.396
317.411
317.411
317.411
317.411
456.911
316.396
316.396
317.411
456.911
470.965
456.911
470.965