<?xml version="1.0"?>
<VTKFile type="ImageData" version="0.1" byte_order="LittleEndian">
  <ImageData Origin="0 0 0" Spacing="1e-05 1e-05 1e-05" WholeExtent="0 191 0 191 0 0">
    <Piece Extent="0 191 0 191 0 0">
      <CellData Scalars="T">
        <DataArray type="Float32" Name="T" format="ascii" NumberOfComponents="1">
510.395
15000
15000
15000
15000
15000
15000
15000
15000
15000
14999.9
14999.9
14999.9
14999.8
14999.8
14999.7
14999.5
14999.4
14999.1
14998.8
14998.4
14997.9
14997.3
14996.4
14995.3
14993.9
14992.1
14989.9
14987.1
14983.6
14979.3
14974
14967.6
14959.7
14950.2
14938.8
14925.2
14908.9
14889.7
14867.1
14840.5
14809.5
14773.6
14732.1
14684.4
14629.9
14567.9
14497.7
14418.5
14329.8
14230.8
14120.9
13999.3
13865.6
13719.2
13559.6
13386.5
13199.6
12998.7
12783.8
12554.9
12312.4
12056.4
11787.6
11506.5
11214
10911
10598.5
10277.6
9949.79
9616.27
9278.54
8938.1
8596.52
8255.36
7916.19
7580.57
7250.03
6926.01
6609.92
6303.05
6006.59
5721.63
5449.11
5189.88
4944.6
4713.84
4498
4297.36
4112.06
3942.14
3787.48
3647.89
3523.07
3412.64
3316.14
3233.06
3162.82
3104.82
3058.42
3022.97
2997.81
2982.28
2975.72
2977.5
2986.99
3003.57
3026.69
3055.78
3090.32
3129.81
3173.77
3221.76
3273.36
3328.16
3385.78
3445.85
3508.03
3571.96
3637.33
3703.81
3771.09
3838.87
3906.84
3974.7
4042.18
4108.97
4174.8
4239.4
4302.51
4363.86
4423.21
4480.33
4535
4587.02
4636.2
4682.39
4725.42
4765.18
4801.55
4834.45
4863.82
4889.61
4911.79
4930.36
4945.32
4956.7
4964.54
4968.88
4969.8
4967.35
4961.63
4952.73
4940.72
4925.72
4907.83
4887.15
4863.81
4837.93
4809.64
4779.07
4746.36
4711.68
4675.19
4637.06
4597.48
4556.66
4514.79
4472.11
4428.86
4385.26
4341.57
4298.04
4254.94
4212.5
4170.98
4130.6
4091.55
4053.95
4017.84
3983.07
3949.14
3914.93
3878.16
3834.32
3774.72
3682.5
3525.07
3238.48
2694.2
1621.69
319.418
1096.23
15000
15000
15000
15000
15000
15000
15000
15000
15000
14999.9
14999.9
14999.9
14999.8
14999.8
14999.7
14999.5
14999.4
14999.1
14998.8
14998.4
14997.9
14997.3
14996.4
14995.3
14993.9
14992.1
14989.9
14987.1
14983.6
14979.3
14974
14967.6
14959.7
14950.3
14938.9
14925.2
14909
14889.7
14867.1
14840.5
14809.6
14773.7
14732.2
14684.5
14630
14568
14497.8
14418.7
14330
14231
14121.1
13999.6
13865.9
13719.5
13560
13386.9
13200
12999.1
12784.2
12555.4
12312.9
12056.9
11788.1
11507.1
11214.6
10911.6
10599
10278.2
9950.34
9616.8
9279.04
8938.56
8596.93
8255.71
7916.47
7580.78
7250.15
6926.04
6609.84
6302.86
6006.28
5721.18
5448.54
5189.16
4943.73
4712.82
4496.82
4296.02
4110.56
3940.47
3785.65
3645.9
3520.92
3410.32
3313.67
3230.42
3160.03
3101.87
3055.32
3019.73
2994.43
2978.77
2972.08
2973.73
2983.09
2999.56
3022.57
3051.55
3085.98
3125.38
3169.25
3217.16
3268.67
3323.4
3380.95
3440.96
3503.08
3566.97
3632.3
3698.75
3766
3833.76
3901.73
3969.6
4037.08
4103.89
4169.75
4234.39
4297.53
4358.93
4418.34
4475.53
4530.27
4582.37
4631.63
4677.9
4721.02
4760.87
4797.33
4830.33
4859.79
4885.67
4907.94
4926.59
4941.64
4953.09
4961
4965.41
4966.39
4964.01
4958.34
4949.47
4937.51
4922.54
4904.68
4884.03
4860.71
4834.84
4806.56
4776
4743.3
4708.63
4672.14
4634.02
4594.45
4553.63
4511.77
4469.1
4425.85
4382.27
4338.59
4295.08
4252
4209.58
4168.08
4127.72
4088.69
4051.12
4015.04
3980.29
3946.39
3912.23
3875.53
3831.86
3772.64
3681.47
3527.11
3250.52
2741.94
1808.7
357.068
1084.86
15000
15000
15000
15000
15000
15000
15000
15000
15000
14999.9
14999.9
14999.9
14999.8
14999.8
14999.7
14999.5
14999.4
14999.1
14998.8
14998.4
14997.9
14997.3
14996.4
14995.3
14993.9
14992.1
14989.9
14987.1
14983.6
14979.3
14974
14967.6
14959.8
14950.3
14938.9
14925.3
14909
14889.8
14867.2
14840.6
14809.7
14773.8
14732.3
14684.7
14630.2
14568.3
14498.1
14419
14330.4
14231.5
14121.6
14000.1
13866.5
13720.1
13560.7
13387.6
13200.8
13000
12785.2
12556.4
12313.9
12058
11789.2
11508.2
11215.7
10912.7
10600.2
10279.3
9951.44
9617.86
9280.03
8939.48
8597.75
8256.41
7917.04
7581.2
7250.4
6926.1
6609.69
6302.48
6005.66
5720.31
5447.39
5187.73
4942.02
4710.8
4494.49
4293.37
4107.59
3937.17
3782.02
3641.94
3516.63
3405.72
3308.74
3225.18
3154.47
3096.02
3049.17
3013.29
2987.71
2971.77
2964.82
2966.22
2975.34
2991.57
3014.35
3043.12
3077.35
3116.55
3160.24
3207.97
3259.33
3313.91
3371.33
3431.22
3493.23
3557.02
3622.27
3688.65
3755.86
3823.59
3891.54
3959.41
4026.91
4093.76
4159.67
4224.38
4287.61
4349.11
4408.63
4465.95
4520.83
4573.08
4622.51
4668.95
4712.24
4752.27
4788.92
4822.1
4851.74
4877.8
4900.25
4919.07
4934.28
4945.89
4953.94
4958.49
4959.59
4957.32
4951.75
4942.98
4931.09
4916.19
4898.39
4877.79
4854.51
4828.67
4800.42
4769.88
4737.2
4702.54
4666.06
4627.95
4588.39
4547.58
4505.74
4463.09
4419.86
4376.3
4332.65
4289.18
4246.13
4203.75
4162.29
4121.97
4082.99
4045.46
4009.43
3974.74
3940.9
3906.82
3870.26
3826.85
3768.17
3678.28
3526.99
3257.69
2765.12
1855.9
355.669
1062.99
15000
15000
15000
15000
15000
15000
15000
15000
15000
14999.9
14999.9
14999.9
14999.8
14999.8
14999.7
14999.5
14999.4
14999.1
14998.8
14998.4
14997.9
14997.3
14996.4
14995.3
14993.9
14992.1
14989.9
14987.1
14983.6
14979.3
14974.1
14967.6
14959.8
14950.3
14939
14925.3
14909.1
14889.9
14867.3
14840.8
14809.9
14774
14732.6
14685
14630.5
14568.6
14498.5
14419.5
14330.9
14232.1
14122.3
14000.9
13867.3
13721.1
13561.7
13388.7
13202
13001.3
12786.5
12557.8
12315.4
12059.6
11790.8
11509.9
11217.4
10914.4
10601.9
10281
9953.09
9619.43
9281.52
8940.85
8598.98
8257.47
7917.91
7581.83
7250.78
6926.2
6609.49
6301.94
6004.76
5719.04
5445.72
5185.63
4939.48
4707.81
4491.04
4289.45
4103.19
3932.29
3776.65
3636.08
3510.28
3398.89
3301.43
3217.4
3146.23
3087.32
3040.03
3003.72
2977.72
2961.37
2954.03
2955.04
2963.8
2979.68
3002.12
3030.57
3064.49
3103.4
3146.82
3194.29
3245.41
3299.77
3356.98
3416.68
3478.53
3542.18
3607.31
3673.6
3740.73
3808.41
3876.34
3944.21
4011.73
4078.63
4144.62
4209.43
4272.79
4334.43
4394.13
4451.63
4506.72
4559.2
4608.86
4655.55
4699.11
4739.41
4776.33
4809.78
4839.7
4866.03
4888.73
4907.81
4923.26
4935.1
4943.38
4948.13
4949.42
4947.31
4941.9
4933.26
4921.49
4906.7
4888.98
4868.45
4845.23
4819.45
4791.23
4760.72
4728.07
4693.43
4656.97
4618.88
4579.34
4538.55
4496.73
4454.11
4410.91
4367.39
4323.78
4280.35
4237.36
4195.04
4153.64
4113.39
4074.47
4037.02
4001.06
3966.45
3932.7
3898.73
3862.34
3819.2
3761.07
3672.25
3523.09
3257.55
2769.37
1853.9
354.186
1055.65
15000
15000
15000
15000
15000
15000
15000
15000
15000
14999.9
14999.9
14999.9
14999.8
14999.8
14999.7
14999.5
14999.4
14999.1
14998.8
14998.4
14997.9
14997.3
14996.4
14995.3
14993.9
14992.1
14989.9
14987.1
14983.6
14979.4
14974.1
14967.7
14959.9
14950.4
14939
14925.4
14909.2
14890.1
14867.5
14841
14810.1
14774.3
14732.9
14685.3
14631
14569.1
14499.1
14420.2
14331.6
14232.9
14123.2
14001.9
13868.4
13722.3
13563
13390.2
13203.5
13002.9
12788.3
12559.7
12317.4
12061.6
11793
11512.1
11219.7
10916.7
10604.2
10283.3
9955.26
9621.52
9283.49
8942.67
8600.61
8258.89
7919.06
7582.7
7251.31
6926.36
6609.24
6301.26
6003.62
5717.39
5443.54
5182.91
4936.18
4703.92
4486.54
4284.32
4097.43
3925.89
3769.6
3628.39
3501.95
3389.91
3291.82
3207.17
3135.39
3075.87
3028
2991.11
2964.56
2947.67
2939.81
2940.32
2948.58
2964
2985.99
3014.01
3047.52
3086.04
3129.09
3176.22
3227.01
3281.07
3338.01
3397.47
3459.09
3522.55
3587.52
3653.67
3720.71
3788.32
3856.2
3924.07
3991.63
4058.59
4124.68
4189.61
4253.13
4314.97
4374.89
4432.64
4488
4540.77
4590.75
4637.77
4681.67
4722.32
4759.6
4793.42
4823.69
4850.38
4873.43
4892.85
4908.62
4920.77
4929.33
4934.35
4935.89
4934.01
4928.8
4920.34
4908.74
4894.08
4876.48
4856.05
4832.91
4807.19
4779.03
4748.57
4715.95
4681.34
4644.91
4606.85
4567.33
4526.57
4484.79
4442.2
4399.05
4355.57
4312.02
4268.66
4225.73
4183.49
4142.17
4102
4063.18
4025.82
3989.96
3955.45
3921.81
3887.98
3851.76
3808.9
3751.24
3663.26
3515.54
3252.43
2768.89
1868.73
353.155
1062.87
15000
15000
15000
15000
15000
15000
15000
15000
15000
14999.9
14999.9
14999.9
14999.8
14999.8
14999.7
14999.5
14999.4
14999.1
14998.8
14998.4
14997.9
14997.3
14996.4
14995.3
14993.9
14992.1
14989.9
14987.1
14983.7
14979.4
14974.1
14967.7
14959.9
14950.5
14939.1
14925.5
14909.4
14890.2
14867.7
14841.2
14810.4
14774.6
14733.3
14685.8
14631.5
14569.7
14499.8
14420.9
14332.5
14233.9
14124.3
14003.1
13869.8
13723.8
13564.6
13391.9
13205.4
13005
12790.5
12562
12319.8
12064.2
11795.6
11514.8
11222.4
10919.5
10606.9
10286
9957.95
9624.11
9285.93
8944.93
8602.65
8260.66
7920.52
7583.79
7252
6926.6
6609
6300.48
6002.26
5715.42
5440.93
5179.62
4932.18
4699.19
4481.06
4278.07
4090.4
3918.07
3760.99
3618.98
3491.75
3378.92
3280.05
3194.62
3122.08
3061.82
3013.21
2975.62
2948.37
2930.81
2922.29
2922.17
2929.83
2944.66
2966.1
2993.57
3026.58
3064.61
3107.2
3153.9
3204.29
3257.97
3314.56
3373.71
3435.05
3498.27
3563.02
3629.01
3695.91
3763.43
3831.26
3899.12
3966.7
4033.74
4099.94
4165.03
4228.74
4290.81
4351
4409.05
4464.75
4517.88
4568.24
4615.67
4659.99
4701.07
4738.79
4773.05
4803.77
4830.9
4854.38
4874.21
4890.39
4902.92
4911.84
4917.2
4919.04
4917.45
4912.49
4904.26
4892.86
4878.37
4860.92
4840.62
4817.59
4791.96
4763.87
4733.46
4700.89
4666.33
4629.93
4591.9
4552.42
4511.7
4469.96
4427.42
4384.32
4340.91
4297.43
4254.14
4211.3
4169.15
4127.94
4087.88
4049.16
4011.92
3976.18
3941.79
3908.28
3874.6
3838.57
3795.98
3738.73
3651.41
3504.77
3243.28
2761.12
1854.75
351.878
1062.08
15000
15000
15000
15000
15000
15000
15000
15000
15000
14999.9
14999.9
14999.9
14999.8
14999.8
14999.7
14999.5
14999.4
14999.1
14998.8
14998.5
14997.9
14997.3
14996.4
14995.3
14993.9
14992.1
14989.9
14987.1
14983.7
14979.4
14974.2
14967.8
14960
14950.6
14939.2
14925.7
14909.5
14890.4
14867.9
14841.5
14810.7
14775
14733.7
14686.3
14632.1
14570.4
14500.5
14421.8
14333.5
14235
14125.5
14004.5
13871.4
13725.5
13566.5
13394
13207.7
13007.4
12793
12564.7
12322.6
12067.1
11798.7
11518
11225.7
10922.7
10610.2
10289.3
9961.13
9627.17
9288.84
8947.63
8605.09
8262.78
7922.28
7585.14
7252.87
6926.95
6608.77
6299.63
6000.74
5713.18
5437.93
5175.82
4927.56
4693.71
4474.69
4270.81
4082.21
3908.95
3750.93
3607.98
3479.81
3366.04
3266.24
3179.9
3106.45
3045.31
2995.84
2957.39
2929.32
2910.96
2901.66
2900.79
2907.72
2921.85
2942.61
2969.45
3001.84
3039.29
3081.32
3127.5
3177.4
3230.63
3286.81
3345.57
3406.58
3469.49
3533.99
3599.76
3666.5
3733.89
3801.66
3869.49
3937.1
4004.22
4070.54
4135.81
4199.74
4262.08
4322.57
4380.97
4437.06
4490.61
4541.43
4589.32
4634.14
4675.73
4713.97
4748.76
4780
4807.65
4831.64
4851.97
4868.62
4881.6
4890.95
4896.71
4898.93
4897.67
4893.02
4885.07
4873.9
4859.63
4842.36
4822.21
4799.31
4773.79
4745.79
4715.46
4682.95
4648.44
4612.1
4574.11
4534.67
4494
4452.31
4409.83
4366.8
4323.46
4280.07
4236.88
4194.14
4152.11
4111.01
4071.08
4032.5
3995.39
3959.78
3925.54
3892.18
3858.66
3822.82
3780.49
3723.61
3636.86
3491.12
3231.13
2752.07
1857.25
351.137
1054.62
15000
15000
15000
15000
15000
15000
15000
15000
15000
14999.9
14999.9
14999.9
14999.8
14999.8
14999.7
14999.5
14999.4
14999.1
14998.8
14998.5
14997.9
14997.3
14996.4
14995.3
14993.9
14992.2
14989.9
14987.2
14983.7
14979.5
14974.2
14967.8
14960.1
14950.7
14939.4
14925.8
14909.7
14890.6
14868.2
14841.8
14811.1
14775.4
14734.2
14686.9
14632.8
14571.2
14501.4
14422.8
14334.7
14236.3
14127
14006.1
13873.1
13727.5
13568.7
13396.3
13210.2
13010.1
12795.9
12567.8
12325.9
12070.5
11802.2
11521.6
11229.4
10926.5
10614
10293
9964.78
9630.7
9292.19
8950.75
8607.92
8265.27
7924.36
7586.74
7253.95
6927.44
6608.61
6298.76
5999.1
5710.74
5434.62
5171.61
4922.41
4687.58
4467.55
4262.64
4072.99
3898.66
3739.57
3595.54
3466.28
3351.44
3250.57
3163.18
3088.69
3026.52
2976.05
2936.63
2907.6
2888.31
2878.11
2876.37
2882.45
2895.77
2915.75
2941.84
2973.51
3010.28
3051.66
3097.23
3146.56
3199.25
3254.94
3313.25
3373.86
3436.41
3500.61
3566.12
3632.65
3699.9
3767.56
3835.36
3902.99
3970.18
4036.64
4102.09
4166.27
4228.9
4289.74
4348.53
4405.05
4459.08
4510.4
4558.84
4604.22
4646.39
4685.23
4720.61
4752.46
4780.69
4805.27
4826.17
4843.37
4856.88
4866.73
4872.95
4875.59
4874.73
4870.44
4862.81
4851.93
4837.91
4820.85
4800.89
4778.15
4752.76
4724.87
4694.63
4662.2
4627.76
4591.47
4553.54
4514.16
4473.55
4431.92
4389.51
4346.56
4303.32
4260.03
4216.95
4174.33
4132.43
4091.47
4051.69
4013.25
3976.3
3940.85
3906.76
3873.57
3840.23
3804.59
3762.51
3705.98
3619.76
3474.86
3216.27
2739.68
1847.3
348.649
1053.69
15000
15000
15000
15000
15000
15000
15000
15000
15000
14999.9
14999.9
14999.9
14999.8
14999.8
14999.7
14999.5
14999.4
14999.2
14998.9
14998.5
14997.9
14997.3
14996.4
14995.3
14993.9
14992.2
14990
14987.2
14983.8
14979.5
14974.3
14967.9
14960.2
14950.8
14939.5
14926
14909.9
14890.9
14868.5
14842.2
14811.5
14775.9
14734.8
14687.5
14633.5
14572.1
14502.4
14424
14336
14237.7
14128.6
14007.9
13875.1
13729.7
13571.1
13398.9
13213
13013.1
12799.2
12571.2
12329.5
12074.3
11806.2
11525.6
11233.5
10930.7
10618.2
10297.2
9968.89
9634.68
9295.98
8954.29
8611.15
8268.11
7926.76
7588.63
7255.25
6928.09
6608.54
6297.92
5997.42
5708.15
5431.09
5167.07
4916.82
4680.9
4459.76
4253.69
4062.87
3887.35
3727.06
3581.81
3451.35
3335.3
3233.24
3144.65
3068.99
3005.67
2954.07
2913.54
2883.43
2863.09
2851.87
2849.13
2854.26
2866.66
2885.74
2910.97
2941.83
2977.81
3018.46
3063.32
3111.99
3164.07
3219.19
3276.99
3337.12
3399.26
3463.09
3528.3
3594.58
3661.64
3729.19
3796.92
3864.56
3931.81
3998.41
4064.05
4128.49
4191.44
4252.65
4311.87
4368.87
4423.41
4475.3
4524.33
4570.33
4613.15
4652.65
4688.7
4721.22
4750.12
4775.36
4796.9
4814.72
4828.82
4839.23
4845.97
4849.11
4848.7
4844.82
4837.56
4827.01
4813.27
4796.47
4776.73
4754.17
4728.94
4701.18
4671.06
4638.72
4604.36
4568.15
4530.29
4490.98
4450.44
4408.89
4366.57
4323.71
4280.57
4237.4
4194.44
4151.96
4110.21
4069.41
4029.79
3991.52
3954.74
3919.47
3885.55
3852.54
3819.39
3783.97
3742.14
3685.95
3600.2
3455.97
3198.07
2720.59
1815.47
345.789
1071.19
15000
15000
15000
15000
15000
15000
15000
15000
15000
14999.9
14999.9
14999.9
14999.8
14999.8
14999.7
14999.5
14999.4
14999.2
14998.9
14998.5
14998
14997.3
14996.4
14995.3
14994
14992.2
14990
14987.2
14983.8
14979.6
14974.4
14968
14960.3
14950.9
14939.7
14926.2
14910.1
14891.2
14868.8
14842.5
14811.9
14776.4
14735.4
14688.3
14634.3
14573
14503.5
14425.2
14337.4
14239.3
14130.4
14009.9
13877.3
13732
13573.7
13401.8
13216.1
13016.4
12802.7
12575
12333.5
12078.5
11810.5
11530.1
11238.1
10935.3
10622.9
10301.8
9973.44
9639.09
9300.19
8958.24
8614.76
8271.32
7929.49
7590.81
7256.81
6928.95
6608.63
6297.16
5995.75
5705.51
5427.41
5162.3
4910.91
4673.8
4451.43
4244.11
4052
3875.18
3713.56
3566.99
3435.2
3317.82
3214.43
3124.53
3047.58
2982.98
2930.12
2888.36
2857.05
2835.54
2823.18
2819.34
2823.39
2834.75
2852.84
2877.11
2907.05
2942.15
2981.96
3026.03
3073.96
3125.35
3179.82
3237.02
3296.61
3358.27
3421.68
3486.54
3552.53
3619.36
3686.75
3754.4
3822.02
3889.33
3956.04
4021.89
4086.59
4149.87
4211.47
4271.15
4328.66
4383.76
4436.26
4485.93
4532.62
4576.14
4616.35
4653.14
4686.39
4716.03
4742
4764.24
4782.74
4797.5
4808.54
4815.87
4819.56
4819.65
4816.23
4809.39
4799.21
4785.81
4769.3
4749.8
4727.46
4702.42
4674.82
4644.82
4612.6
4578.34
4542.22
4504.45
4465.22
4424.77
4383.31
4341.09
4298.34
4255.32
4212.28
4169.47
4127.15
4085.55
4044.93
4005.49
3967.41
3930.81
3895.73
3862.01
3829.19
3796.23
3761.03
3719.47
3663.61
3578.32
3434.69
3177.39
2700.1
1799.76
344.935
1076.66
15000
15000
15000
15000
15000
15000
15000
15000
15000
14999.9
14999.9
14999.9
14999.8
14999.8
14999.7
14999.5
14999.4
14999.2
14998.9
14998.5
14998
14997.3
14996.4
14995.4
14994
14992.2
14990
14987.3
14983.9
14979.6
14974.4
14968.1
14960.4
14951
14939.8
14926.4
14910.4
14891.4
14869.1
14842.9
14812.4
14777
14736
14689
14635.2
14574
14504.7
14426.5
14338.9
14241
14132.2
14012
13879.6
13734.6
13576.5
13404.8
13219.4
13020
12806.5
12579
12337.7
12082.9
11815.1
11534.9
11243
10940.3
10627.9
10306.8
9978.39
9643.9
9304.81
8962.58
8618.76
8274.9
7932.56
7593.31
7258.64
6930.04
6608.9
6296.54
5994.16
5702.88
5423.67
5157.4
4904.78
4666.4
4442.72
4234.04
4040.55
3862.31
3699.27
3551.26
3418.02
3299.2
3194.37
3103.05
3024.68
2958.69
2904.46
2861.35
2828.72
2805.92
2792.31
2787.25
2790.12
2800.34
2817.33
2840.53
2869.45
2903.58
2942.46
2985.65
3032.74
3083.35
3137.09
3193.63
3252.61
3313.73
3376.66
3441.1
3506.74
3573.31
3640.5
3708.03
3775.61
3842.95
3909.78
3975.81
4040.78
4104.4
4166.41
4226.56
4284.6
4340.3
4393.44
4443.8
4491.21
4535.48
4576.47
4614.05
4648.1
4678.54
4705.29
4728.3
4747.55
4763.03
4774.75
4782.73
4787.02
4787.67
4784.77
4778.38
4768.62
4755.59
4739.41
4720.21
4698.11
4673.28
4645.86
4616.03
4583.95
4549.81
4513.8
4476.13
4437
4396.65
4355.3
4313.19
4270.57
4227.69
4184.79
4142.14
4099.98
4058.57
4018.14
3978.89
3941.01
3904.62
3869.74
3836.22
3803.61
3770.87
3735.9
3694.6
3639.1
3554.33
3411.6
3156.19
2684.11
1799.67
345.028
1080.47
15000
15000
15000
15000
15000
15000
15000
15000
15000
14999.9
14999.9
14999.9
14999.8
14999.8
14999.7
14999.5
14999.4
14999.2
14998.9
14998.5
14998
14997.3
14996.5
14995.4
14994
14992.2
14990.1
14987.3
14983.9
14979.7
14974.5
14968.2
14960.5
14951.2
14940
14926.6
14910.6
14891.7
14869.5
14843.4
14812.9
14777.6
14736.7
14689.8
14636.1
14575.1
14505.9
14427.9
14340.4
14242.8
14134.2
14014.2
13882.1
13737.3
13579.4
13408.1
13222.9
13023.7
12810.5
12583.3
12342.2
12087.7
11820.1
11540
11248.3
10945.7
10633.3
10312.2
9983.72
9649.11
9309.81
8967.31
8623.14
8278.84
7935.99
7596.13
7260.78
6931.41
6609.41
6296.11
5992.71
5700.34
5419.96
5152.46
4898.55
4658.82
4433.74
4223.62
4028.66
3848.92
3684.36
3534.81
3400.03
3279.66
3173.29
3080.42
3000.54
2933.04
2877.33
2832.77
2798.71
2774.52
2759.54
2753.16
2754.74
2763.71
2779.49
2801.53
2829.33
2862.39
2900.24
2942.46
2988.64
3038.38
3091.32
3147.11
3205.41
3265.91
3328.3
3392.26
3457.51
3523.76
3590.71
3658.08
3725.58
3792.94
3859.86
3926.07
3991.29
4055.24
4117.67
4178.3
4236.9
4293.21
4347.02
4398.11
4446.27
4491.35
4533.16
4571.58
4606.48
4637.76
4665.35
4689.19
4709.25
4725.5
4737.96
4746.64
4751.59
4752.86
4750.52
4744.65
4735.35
4722.73
4706.92
4688.04
4666.22
4641.64
4614.43
4584.78
4552.86
4518.86
4482.99
4445.44
4406.44
4366.21
4324.98
4283
4240.52
4197.78
4155.05
4112.57
4070.6
4029.39
3989.16
3950.12
3912.46
3876.28
3841.62
3808.32
3775.92
3743.4
3708.66
3667.65
3612.54
3528.41
3386.89
3134.22
2668.81
1797.85
345.738
1075.66
15000
15000
15000
15000
15000
15000
15000
15000
15000
14999.9
14999.9
14999.9
14999.8
14999.8
14999.7
14999.6
14999.4
14999.2
14998.9
14998.5
14998
14997.3
14996.5
14995.4
14994
14992.3
14990.1
14987.3
14984
14979.8
14974.6
14968.3
14960.6
14951.3
14940.2
14926.8
14910.9
14892
14869.8
14843.8
14813.4
14778.2
14737.4
14690.6
14637.1
14576.2
14507.2
14429.4
14342.1
14244.6
14136.3
14016.5
13884.6
13740.1
13582.5
13411.5
13226.6
13027.7
12814.8
12587.8
12347
12092.7
11825.3
11545.5
11253.9
10951.4
10639.1
10318
9989.42
9654.69
9315.19
8972.42
8627.89
8283.16
7939.78
7599.31
7263.25
6933.08
6610.2
6295.93
5991.48
5697.96
5416.38
5147.59
4892.33
4651.19
4424.64
4213.02
4016.51
3835.19
3669.02
3517.85
3381.42
3259.41
3151.4
3056.91
2975.4
2906.3
2849
2802.88
2767.3
2741.6
2725.17
2717.35
2717.55
2725.17
2739.64
2760.42
2787
2818.89
2855.64
2896.79
2941.96
2990.75
3042.81
3097.77
3155.32
3215.13
3276.9
3340.33
3405.13
3471
3537.67
3604.83
3672.22
3739.55
3806.54
3872.9
3938.36
4002.64
4065.48
4126.6
4185.76
4242.7
4297.2
4349.03
4397.99
4443.9
4486.57
4525.87
4561.66
4593.84
4622.33
4647.05
4667.96
4685.05
4698.3
4707.74
4713.39
4715.32
4713.59
4708.28
4699.5
4687.34
4671.93
4653.41
4631.91
4607.6
4580.64
4551.2
4519.47
4485.64
4449.92
4412.51
4373.65
4333.55
4292.47
4250.64
4208.31
4165.75
4123.19
4080.9
4039.13
3998.13
3958.11
3919.3
3881.86
3845.92
3811.48
3778.4
3746.23
3713.93
3679.45
3638.75
3584.06
3500.64
3360.44
3110.37
2650.33
1792.76
345.543
1079.72
15000
15000
15000
15000
15000
15000
15000
15000
15000
14999.9
14999.9
14999.9
14999.8
14999.8
14999.7
14999.6
14999.4
14999.2
14998.9
14998.5
14998
14997.3
14996.5
14995.4
14994
14992.3
14990.1
14987.4
14984
14979.8
14974.7
14968.4
14960.7
14951.5
14940.3
14927
14911.2
14892.4
14870.2
14844.3
14814
14778.8
14738.2
14691.5
14638.1
14577.3
14508.5
14430.9
14343.8
14246.5
14138.5
14018.9
13887.3
13743.1
13585.8
13415
13230.4
13031.8
12819.2
12592.6
12352
12098
11830.8
11551.2
11259.7
10957.4
10645.1
10324.1
9995.47
9660.62
9320.94
8977.9
8633.02
8287.85
7943.94
7602.84
7266.07
6935.1
6611.31
6296.04
5990.51
5695.83
5413
5142.88
4886.22
4643.63
4415.56
4202.37
4004.24
3821.28
3653.43
3500.56
3362.42
3238.69
3128.95
3032.74
2949.52
2878.72
2819.75
2771.97
2734.76
2707.48
2689.48
2680.14
2678.85
2685.02
2698.09
2717.52
2742.79
2773.43
2808.96
2848.97
2893.04
2940.8
2991.88
3045.95
3102.66
3161.72
3222.81
3285.64
3349.91
3415.35
3481.67
3548.59
3615.82
3683.09
3750.1
3816.59
3882.27
3946.86
4010.09
4071.7
4131.42
4189
4244.2
4296.79
4346.56
4393.32
4436.89
4477.1
4513.83
4546.95
4576.36
4602.01
4623.83
4641.79
4655.89
4666.13
4672.55
4675.19
4674.11
4669.41
4661.18
4649.52
4634.56
4616.43
4595.29
4571.29
4544.6
4515.41
4483.89
4450.25
4414.71
4377.47
4338.77
4298.83
4257.91
4216.24
4174.09
4131.7
4089.34
4047.26
4005.7
3964.92
3925.14
3886.56
3849.36
3813.65
3779.45
3746.6
3714.66
3682.6
3648.38
3607.99
3553.76
3471.08
3332.23
3084.68
2629.3
1779.92
344.204
1080.79
15000
15000
15000
15000
15000
15000
15000
15000
15000
14999.9
14999.9
14999.9
14999.8
14999.8
14999.7
14999.6
14999.4
14999.2
14998.9
14998.5
14998
14997.3
14996.5
14995.4
14994.1
14992.3
14990.1
14987.4
14984.1
14979.9
14974.7
14968.5
14960.8
14951.6
14940.5
14927.2
14911.4
14892.7
14870.6
14844.7
14814.5
14779.5
14739
14692.4
14639.2
14578.5
14509.9
14432.4
14345.6
14248.6
14140.7
14021.4
13890.1
13746.2
13589.2
13418.7
13234.4
13036.2
12823.8
12597.5
12357.3
12103.5
11836.6
11557.1
11265.9
10963.7
10651.5
10330.5
10001.9
9666.9
9327.04
8983.74
8638.52
8292.91
7948.48
7606.76
7269.27
6937.48
6612.79
6296.51
5989.88
5694.01
5409.9
5138.43
4880.34
4636.25
4406.63
4191.81
3992.03
3807.36
3637.77
3483.14
3343.22
3217.69
3106.16
3008.15
2923.14
2850.56
2789.83
2740.32
2701.4
2672.43
2652.77
2641.82
2638.95
2643.59
2655.17
2673.15
2697.03
2726.31
2760.56
2799.32
2842.22
2888.86
2938.89
2991.98
3047.78
3106
3166.34
3228.49
3292.19
3357.13
3423.05
3489.66
3556.69
3623.84
3690.85
3757.42
3823.29
3888.17
3951.78
4013.85
4074.12
4132.33
4188.23
4241.59
4292.19
4339.82
4384.3
4425.46
4463.14
4497.23
4527.63
4554.24
4577
4595.88
4610.87
4621.96
4629.18
4632.58
4632.21
4628.16
4620.52
4609.4
4594.93
4577.24
4556.49
4532.84
4506.45
4477.53
4446.26
4412.84
4377.5
4340.45
4301.93
4262.17
4221.43
4179.95
4137.99
4095.8
4053.64
4011.78
3970.45
3929.9
3890.36
3852.03
3815.07
3779.61
3745.65
3713.04
3681.34
3649.52
3615.56
3575.49
3521.72
3439.76
3302.05
3056.01
2600.46
1736.89
341.785
1083.45
15000
15000
15000
15000
15000
15000
15000
15000
15000
14999.9
14999.9
14999.9
14999.8
14999.8
14999.7
14999.6
14999.4
14999.2
14998.9
14998.5
14998
14997.3
14996.5
14995.4
14994.1
14992.3
14990.2
14987.5
14984.1
14979.9
14974.8
14968.6
14961
14951.8
14940.7
14927.5
14911.7
14893
14871
14845.2
14815.1
14780.1
14739.8
14693.3
14640.2
14579.8
14511.3
14434.1
14347.4
14250.6
14143
14024
13893
13749.3
13592.6
13422.5
13238.5
13040.6
12828.6
12602.6
12362.7
12109.2
11842.6
11563.3
11272.3
10970.2
10658.2
10337.2
10008.6
9673.52
9333.49
8989.95
8644.39
8298.36
7953.41
7611.08
7272.88
6940.27
6614.66
6297.37
5989.64
5692.57
5407.17
5134.33
4874.79
4629.17
4397.96
4181.49
3980.01
3793.59
3622.22
3465.77
3324.02
3196.64
3083.25
2983.37
2896.51
2822.08
2759.52
2708.19
2667.48
2636.74
2615.36
2602.71
2598.18
2601.2
2611.2
2627.65
2650.04
2677.89
2710.76
2748.2
2789.84
2835.28
2884.18
2936.2
2991.02
3048.33
3107.84
3169.25
3232.29
3296.68
3362.13
3428.38
3495.14
3562.13
3629.08
3695.7
3761.72
3826.85
3890.8
3953.32
4014.12
4072.95
4129.55
4183.67
4235.1
4283.61
4329.02
4371.13
4409.81
4444.9
4476.29
4503.89
4527.64
4547.48
4563.4
4575.38
4583.45
4587.64
4588.02
4584.66
4577.66
4567.12
4553.18
4535.97
4515.64
4492.37
4466.33
4437.71
4406.71
4373.54
4338.43
4301.59
4263.28
4223.72
4183.18
4141.9
4100.14
4058.17
4016.24
3974.6
3933.51
3893.21
3853.92
3815.84
3779.14
3743.93
3710.22
3677.85
3646.38
3614.81
3581.11
3541.37
3488.05
3406.79
3270.17
3025.76
2572.67
1716.83
341.089
1082.86
15000
15000
15000
15000
15000
15000
15000
15000
15000
14999.9
14999.9
14999.9
14999.8
14999.8
14999.7
14999.6
14999.4
14999.2
14998.9
14998.5
14998
14997.4
14996.5
14995.5
14994.1
14992.4
14990.2
14987.5
14984.2
14980
14974.9
14968.7
14961.1
14952
14940.9
14927.7
14912
14893.4
14871.5
14845.7
14815.7
14780.9
14740.6
14694.3
14641.3
14581.1
14512.7
14435.7
14349.3
14252.8
14145.4
14026.7
13895.9
13752.6
13596.2
13426.4
13242.8
13045.2
12833.6
12607.9
12368.3
12115.1
11848.7
11569.8
11278.9
10977.1
10665.1
10344.2
10015.6
9680.45
9340.28
8996.51
8650.63
8304.19
7958.74
7615.8
7276.89
6943.48
6616.97
6298.67
5989.83
5691.56
5404.87
5130.64
4869.64
4622.49
4389.66
4171.53
3968.31
3780.12
3606.94
3448.64
3305.01
3175.73
3060.43
2958.64
2869.86
2793.53
2729.06
2675.85
2633.28
2600.71
2577.52
2563.09
2556.83
2558.15
2566.5
2581.34
2602.16
2628.5
2659.91
2695.95
2736.24
2780.41
2828.1
2878.97
2932.73
2989.05
3047.66
3108.26
3170.57
3234.33
3299.26
3365.07
3431.51
3498.29
3565.12
3631.74
3697.86
3763.2
3827.47
3890.4
3951.71
4011.13
4068.41
4123.29
4175.54
4224.93
4271.27
4314.35
4354.02
4390.12
4422.54
4451.17
4475.92
4496.76
4513.63
4526.54
4535.49
4540.52
4541.69
4539.06
4532.74
4522.82
4509.44
4492.74
4472.88
4450.03
4424.36
4396.07
4365.38
4332.49
4297.63
4261.04
4222.95
4183.62
4143.29
4102.23
4060.7
4018.96
3977.26
3935.87
3895.03
3854.99
3815.96
3778.14
3741.7
3706.74
3673.28
3641.15
3609.92
3578.59
3545.16
3505.75
3452.9
3372.41
3237.21
2995.91
2551.33
1722.06
342.592
1074.54
15000
15000
15000
15000
15000
15000
15000
15000
15000
14999.9
14999.9
14999.9
14999.8
14999.8
14999.7
14999.6
14999.4
14999.2
14998.9
14998.5
14998
14997.4
14996.5
14995.5
14994.1
14992.4
14990.3
14987.6
14984.2
14980.1
14975
14968.8
14961.3
14952.1
14941.1
14928
14912.3
14893.8
14871.9
14846.3
14816.3
14781.6
14741.4
14695.3
14642.5
14582.4
14514.3
14437.4
14351.2
14254.9
14147.9
14029.5
13899
13756
13599.9
13430.4
13247.2
13050
12838.7
12613.3
12374.1
12121.2
11855.1
11576.4
11285.8
10984.1
10672.3
10351.5
10022.9
9687.71
9347.41
9003.42
8657.24
8310.41
7964.46
7620.94
7281.34
6947.14
6619.73
6300.44
5990.49
5691.03
5403.05
5127.45
4864.99
4616.29
4381.85
4162.03
3957.08
3767.09
3592.07
3431.89
3286.35
3155.15
3037.9
2934.15
2843.41
2765.12
2698.71
2643.56
2599.07
2564.6
2539.54
2523.28
2515.21
2514.76
2521.38
2534.53
2553.72
2578.47
2608.34
2642.91
2681.78
2724.59
2770.99
2820.65
2873.26
2928.52
2986.15
3045.86
3107.38
3170.44
3234.77
3300.09
3366.14
3432.63
3499.3
3565.86
3632.03
3697.53
3762.07
3825.37
3887.16
3947.15
4005.08
4060.69
4113.75
4164.02
4211.27
4255.33
4296
4333.13
4366.58
4396.25
4422.04
4443.88
4461.75
4475.61
4485.48
4491.38
4493.37
4491.51
4485.9
4476.64
4463.87
4447.72
4428.35
4405.95
4380.69
4352.77
4322.41
4289.83
4255.26
4218.93
4181.09
4142
4101.92
4061.1
4019.81
3978.31
3936.86
3895.73
3855.15
3815.36
3776.6
3739.05
3702.87
3668.17
3634.96
3603.08
3572.08
3540.99
3507.83
3468.75
3416.4
3336.77
3203.24
2965.39
2528.09
1711.81
343.463
1067
15000
15000
15000
15000
15000
15000
15000
15000
15000
14999.9
14999.9
14999.9
14999.8
14999.8
14999.7
14999.6
14999.4
14999.2
14998.9
14998.5
14998
14997.4
14996.5
14995.5
14994.1
14992.4
14990.3
14987.6
14984.3
14980.2
14975.1
14968.9
14961.4
14952.3
14941.4
14928.2
14912.6
14894.2
14872.4
14846.8
14817
14782.3
14742.3
14696.3
14643.7
14583.7
14515.8
14439.2
14353.3
14257.2
14150.4
14032.3
13902.1
13759.5
13603.8
13434.6
13251.7
13054.8
12843.9
12618.9
12380
12127.5
11861.7
11583.3
11293
10991.5
10679.8
10359.1
10030.5
9695.27
9354.86
9010.68
8664.22
8317.01
7970.59
7626.5
7286.23
6951.25
6622.97
6302.7
5991.67
5691.03
5401.77
5124.81
4860.89
4610.65
4374.6
4153.11
3946.4
3754.62
3577.74
3415.68
3268.21
3135.06
3015.83
2910.1
2817.36
2737.08
2668.68
2611.55
2565.09
2528.68
2501.7
2483.54
2473.6
2471.33
2476.15
2487.55
2505.04
2528.13
2556.39
2589.4
2626.78
2668.16
2713.2
2761.57
2812.96
2867.09
2923.67
2982.42
3043.07
3105.35
3169.01
3233.77
3299.36
3365.51
3431.95
3498.39
3564.56
3630.16
3694.92
3758.55
3820.76
3881.28
3939.83
3996.16
4050
4101.11
4149.28
4194.29
4235.96
4274.12
4308.62
4339.33
4366.17
4389.05
4407.92
4422.77
4433.58
4440.38
4443.22
4442.17
4437.3
4428.74
4416.6
4401.04
4382.2
4360.28
4335.46
4307.95
4277.95
4245.7
4211.44
4175.4
4137.84
4099.01
4059.19
4018.62
3977.59
3936.35
3895.17
3854.3
3813.99
3774.48
3735.98
3698.7
3662.79
3628.35
3595.39
3563.74
3532.98
3502.13
3469.23
3430.5
3378.67
3299.95
3168.19
2933.93
2503.93
1701.59
343.757
1062.78
15000
15000
15000
15000
15000
15000
15000
15000
15000
14999.9
14999.9
14999.9
14999.8
14999.8
14999.7
14999.6
14999.4
14999.2
14998.9
14998.5
14998
14997.4
14996.6
14995.5
14994.2
14992.5
14990.3
14987.7
14984.4
14980.3
14975.2
14969
14961.6
14952.5
14941.6
14928.5
14913
14894.6
14872.8
14847.4
14817.6
14783.1
14743.2
14697.4
14644.9
14585.1
14517.4
14441.1
14355.3
14259.6
14153.1
14035.2
13905.4
13763
13607.7
13438.9
13256.4
13059.9
12849.3
12624.7
12386.1
12133.9
11868.5
11590.4
11300.3
10999
10687.5
10366.9
10038.4
9703.15
9362.64
9018.28
8671.56
8324
7977.13
7632.48
7291.57
6955.84
6626.7
6305.47
5993.38
5691.58
5401.07
5122.75
4857.4
4605.64
4367.99
4144.82
3936.39
3742.8
3564.08
3400.12
3250.73
3115.61
2994.4
2886.67
2791.92
2709.61
2639.19
2580.05
2531.59
2493.19
2464.24
2444.14
2432.29
2428.13
2431.1
2440.69
2456.41
2477.78
2504.37
2535.77
2571.59
2611.47
2655.07
2702.08
2752.19
2805.11
2860.56
2918.27
2977.98
3039.42
3102.34
3166.46
3231.53
3297.26
3363.4
3429.66
3495.76
3561.41
3626.33
3690.23
3752.82
3813.82
3872.96
3929.95
3984.54
4036.48
4085.54
4131.5
4174.15
4213.33
4248.87
4280.63
4308.52
4332.45
4352.35
4368.19
4379.97
4387.7
4391.42
4391.19
4387.1
4379.26
4367.79
4352.84
4334.58
4313.17
4288.82
4261.74
4232.13
4200.25
4166.32
4130.59
4093.33
4054.79
4015.25
3974.96
3934.2
3893.23
3852.32
3811.72