<?xml version="1.0"?>
<VTKFile type="PolyData" version="0.1" byte_order="LittleEndian">
  <PolyData>
    <Piece NumberOfPoints="50000" NumberOfVerts="50000" NumberOfLines="0" NumberOfStrips="0" NumberOfPolys="0">
      <Points>
        <DataArray type="Float32" NumberOfComponents="3" format="ascii">
0.191455 0.00446947 0
-0.180921 0.00177384 0
0.1853 -0.000876101 0
0.193575 -0.000627042 0
-0.157209 0.00340292 0
-0.13196 0.00144242 0
0.0636766 -0.0119183 0
-0.162727 0.000383981 0
0.0563041 -0.00921408 0
-0.0123517 0.00467198 0
0.14525 -0.00562838 0
0.184832 0.00411372 0
-0.105732 0.00377186 0
-0.0747204 -0.0112134 0
-0.197604 0.00148772 0
0.149693 0.00621923 0
-0.0271957 -0.000608206 0
0.191915 0.00116614 0
0.0729217 0.00107599 0
-0.181091 0.0021767 0
-0.189854 0.00303557 0
0.166192 0.00359965 0
-0.187251 0.00162458 0
0.187278 0.000379432 0
0.119208 -0.00567104 0
0.139223 0.00655105 0
-0.185466 -0.00318983 0
0.192318 -0.00123357 0
-0.132512 0.0116123 0
-0.195592 0.00473925 0
-0.146938 0.00617658 0
-0.136351 -0.00745584 0
0.190541 0.000773736 0
0.191638 -0.000119904 0
0.0367361 0.00284951 0
0.19493 -0.000397123 0
0.0593634 0.0011115 0
-0.194074 0.00161074 0
-0.181231 -0.00208873 0
-0.201541 -0.00078443 0
0.140328 0.00666517 0
0.148446 0.00332979 0
-0.185371 -0.000721067 0
0.189336 0.000728998 0
0.195972 0.00101412 0
-0.190771 0.00458076 0
0.186614 0.00276502 0
0.0955979 -0.0067321 0
0.184119 0.000552132 0
0.188526 0.000476315 0
0.0789422 0.0106543 0
-0.187136 -8.63367e-05 0
-0.12975 0.00492966 0
0.186126 0.00179829 0
-0.184152 0.00159646 0
-0.196218 0.00167065 0
0.191635 -0.000207628 0
0.0773629 0.00595132 0
0.143131 0.00401709 0
0.197802 -0.0019336 0
0.161341 0.00268667 0
0.193719 0.00168279 0
0.0428085 -0.0148794 0
0.197695 -0.000438237 0
-0.0630125 0.00849318 0
-0.183649 0.00112628 0
0.187925 -2.53102e-05 0
0.192928 9.8844e-05 0
0.199494 0.00234016 0
0.138215 0.000879452 0
-0.185679 0.00201406 0
0.187783 0.00221394 0
0.102935 0.00103474 0
0.104752 0.00368325 0
0.0894511 0.00288093 0
-0.188579 -0.000749101 0
0.163746 0.00636921 0
-0.178833 0.00252862 0
0.144566 0.00369805 0
-0.195774 0.00124546 0
-0.0980214 -0.0155395 0
-0.191872 0.00256135 0
0.177593 0.00287529 0
-0.186593 0.000772524 0
0.197559 -0.00182587 0
-0.186911 0.00205557 0
0.197853 -0.00178385 0
-0.0837239 -0.00358374 0
-0.0809242 0.0113582 0
-0.188739 -0.00293462 0
0.186157 0.00362278 0
-0.184585 0.000167669 0
0.18683 -0.000419213 0
-0.126733 0.00974132 0
-0.0186881 -0.00984562 0
-0.165835 0.00297599 0
0.186739 0.00459989 0
-0.190162 0.00202246 0
-0.200648 0.00395555 0
-0.198812 -5.80551e-06 0
-0.166483 -0.00310261 0
-0.185303 -0.00221778 0
0.199056 0.000147841 0
-0.0796692 -0.00927567 0
0.200463 0.000208632 0
0.163856 0.00645183 0
0.1212 0.00366845 0
0.00993233 0.00416808 0
0.184111 0.00259781 0
-0.187818 -0.00173769 0
-0.141081 0.00976861 0
-0.190404 0.00197736 0
-0.16222 0.00546249 0
134.5 194.562 0
0.125684 0.00394693 0
-0.187587 0.00217067 0
-0.194565 0.00256795 0
3.44396 4.71108 0
-0.18912 0.00124959 0
-0.00911501 -0.00359569 0
0.192392 -0.00019965 0
-0.182489 -0.00133884 0
0.12993 -0.00116514 0
-0.174153 0.00398144 0
0.188738 0.000142042 0
0.183502 2.22304e-05 0
0.0603289 0.0117339 0
0.193708 0.00255574 0
-0.1687 -0.00277636 0
0.146284 3.79553e-05 0
0.195023 -0.00102404 0
0.193401 0.000275158 0
-0.199724 0.000830107 0
-0.166531 0.00238668 0
0.198195 -0.000372806 0
0.188405 -8.43441e-06 0
0.18154 -0.000853218 0
-0.0296533 0.00195134 0
0.151619 -0.0062041 0
0.147586 -0.00514058 0
0.151556 -0.00631366 0
0.179823 0.00501433 0
0.194678 -0.00112245 0
-0.0445429 -0.00610483 0
-0.193719 0.00364278 0
0.128984 -0.0101237 0
-0.123634 0.00991541 0
-0.191052 0.00140902 0
-0.136048 -0.00888369 0
-0.191683 0.00220584 0
0.146753 0.00396252 0
0.18716 0.00156035 0
-0.0577878 -0.00509121 0
0.152212 -0.0043886 0
0.151331 0.00442276 0
0.185675 0.00233417 0
0.126994 -0.00409983 0
-0.187903 0.00177462 0
-0.0807098 -0.00235027 0
0.194149 0.000300815 0
0.129721 -0.000306281 0
-0.170571 -0.000962101 0
-0.184615 0.0016491 0
-0.19198 0.00167789 0
-0.0492596 0.00517556 0
0.149439 -0.00251517 0
0.168899 -0.00217059 0
0.170993 0.00220794 0
0.143416 0.00424471 0
-0.0785223 0.000736932 0
0.199893 -0.00183886 0
-0.183998 0.00192643 0
-0.0433038 -0.00231784 0
0.193352 0.00254428 0
-0.0347036 -0.00116372 0
-0.148207 0.00787652 0
-0.1845 0.00163073 0
-0.11178 -0.00474287 0
-0.18712 -0.000658989 0
-0.187977 -0.00268087 0
0.18527 0.00042947 0
-0.190076 0.00347876 0
-0.187168 0.00300593 0
0.191363 0.00301285 0
0.186553 3.59833e-05 0
0.144021 -0.00770007 0
0.200319 -0.0011457 0
0.198097 0.000674791 0
0.192226 -0.00127473 0
0.0216644 0.014342 0
0.195473 -0.00126006 0
0.158168 -0.00384669 0
-0.126275 -0.00819594 0
0.175983 0.0034994 0
-0.173696 0.00346294 0
0.185278 0.00129963 0
-0.154627 0.00599879 0
-0.164949 0.00295882 0
-0.185153 0.00227398 0
0.187686 0.00282504 0
-0.123354 0.00939988 0
0.197532 0.00174995 0
0.171388 -0.00212229 0
-0.0385264 -0.00288911 0
0.200192 -0.00188701 0
-0.182715 -0.00336572 0
0.0260834 0.0228374 0
0.0795341 -0.00268295 0
-0.165073 0.00551205 0
-0.116082 -0.0043485 0
0.183446 0.00074609 0
-0.0807368 -0.00943888 0
0.172726 -0.00127043 0
-0.159521 0.00566139 0
-0.10905 -0.00701021 0
-0.191911 0.00330927 0
-0.189348 0.004081 0
0.190143 0.000334024 0
-0.194415 -0.000223436 0
-0.0224795 0.0103621 0
-0.14941 0.00599703 0
-0.194148 0.00215432 0
-0.179996 -0.00257836 0
0.198529 -0.000927952 0
0.0702422 0.012097 0
-0.184626 0.00187426 0
0.199438 0.00100033 0
0.191555 7.51932e-05 0
-0.163826 0.0050659 0
-0.193583 0.00013677 0
-0.190528 -0.00140279 0
0.186448 0.00249542 0
0.0969274 0.0115991 0
-0.0289968 0.00753356 0
-0.197055 0.00252937 0
-0.169469 0.00323251 0
0.14624 -0.00782711 0
-0.149004 -0.00167732 0
-0.188218 0.00201359 0
0.116086 -0.0009285 0
0.195808 0.000444388 0
-0.173005 -0.00281153 0
-0.190497 0.0020248 0
-0.109664 -0.00618085 0
0.0957442 0.00368833 0
0.170913 0.00243563 0
-0.179602 0.00377236 0
0.191696 7.51888e-05 0
0.197118 0.00171995 0
0.113057 0.0063883 0
0.118009 0.0025254 0
-0.178956 0.00283419 0
0.185056 -0.000932682 0
-0.0843179 -0.00399752 0
-0.173037 0.00429307 0
0.185425 0.000329496 0
-0.167711 0.00419809 0
0.163853 0.00470822 0
0.0711108 0.0115027 0
0.102816 0.00060261 0
0.197097 0.000898398 0
-0.178892 0.00275235 0
0.0362687 -0.00344465 0
0.0183493 -0.00614366 0
-0.127441 0.0020607 0
-0.188129 0.000923606 0
-0.185124 0.00181606 0
-0.184013 -0.000248548 0
0.190007 -1.90321e-05 0
0.188419 7.97042e-05 0
0.194123 1.11219e-05 0
-0.189871 -0.000948519 0
0.124572 0.00191048 0
0.0104522 0.00623209 0
-0.198136 0.00281037 0
-0.192597 0.00151393 0
0.184521 0.000277894 0
-0.184088 0.00185664 0
0.182947 0.00353821 0
-0.186899 -0.00027105 0
-0.180991 0.000362081 0
-0.0833197 -0.0103718 0
-0.189813 0.00159115 0
0.180081 -0.000578826 0
-0.16102 0.00551403 0
-0.181445 -0.00108825 0
-0.0716635 0.00983737 0
-0.189328 0.0019683 0
-0.192189 0.00222794 0
0.162466 -0.00100776 0
-0.0671503 0.00365199 0
0.189722 1.87656e-05 0
0.193862 -0.000912318 0
0.123463 0.00702098 0
0.196735 0.00203022 0
0.187087 0.00341448 0
0.195943 0.00245765 0
-0.129547 0.0114463 0
-0.17777 0.00139693 0
-0.197483 0.000872302 0
0.201027 0.000893521 0
-0.0263185 0.00393513 0
0.189045 -0.00037232 0
0.18463 0.00203045 0
0.194619 0.000107229 0
0.0335971 0.0062062 0
-0.0991815 0.0122419 0
0.163774 0.0029967 0
-0.0224228 0.000633397 0
-0.0925027 0.00485819 0
-0.155134 0.00589679 0
0.189797 0.00363163 0
-0.137244 0.0073085 0
0.175398 -0.00208243 0
0.144626 -0.0017883 0
-0.196996 0.00339655 0
0.154054 -0.00649121 0
0.199065 -0.00199504 0
0.177966 -0.000969991 0
0.190397 0.00398199 0
-0.192178 0.00296856 0
-0.0417205 0.0075473 0
0.193972 0.00144039 0
0.193192 1.62937e-05 0
0.0890558 0.0121368 0
-0.183488 0.000209344 0
-0.179778 0.00281798 0
0.198823 0.000697014 0
-0.183648 -0.000990799 0
0.191995 0.00165119 0
0.193247 -0.000688334 0
0.0924472 -0.0105863 0
0.18493 0.00212023 0
-0.188704 0.00200014 0
-0.161188 0.000153506 0
-0.108108 -0.000751697 0
0.0156422 -0.0031895 0
0.023294 -0.0133179 0
-0.173061 0.00203127 0
0.0860013 -0.0118027 0
-0.0196606 0.0194713 0
-0.194947 0.00330717 0
-0.138928 0.00688104 0
-0.19023 0.00253872 0
-0.0783568 -0.00595277 0
0.193264 0.00372947 0
-0.134846 0.00767309 0
-0.192696 0.000401946 0
-28.4949 117.864 0
0.19276 -0.00200872 0
0.192138 -5.64726e-05 0
-0.156572 0.00712867 0
0.186982 0.00187962 0
0.177272 -1.24375e-05 0
-259.314 -463.742 0
0.059041 0.00735706 0
-0.190674 0.0021927 0
-0.158168 -0.000716562 0
0.19066 0.00213891 0
1.86412 -3.83867 0
0.180402 0.00282042 0
-0.186685 -0.00242002 0
-0.118774 0.00057534 0
-0.189593 -0.00112448 0
-0.193194 0.0036215 0
0.189298 -1.02694e-05 0
-0.195944 -0.000228933 0
-0.169808 0.00478021 0
0.148388 0.00639345 0
-0.184695 0.000475302 0
-0.153694 0.00713625 0
-0.170691 0.00432832 0
0.191163 0.00246095 0
0.172413 -0.0028286 0
-0.113341 0.00943699 0
0.196702 -0.000506358 0
-0.19082 -0.00223789 0
-0.177071 -0.0012594 0
-0.192834 0.00103867 0
0.0170436 -0.0141405 0
-0.185706 -0.00209436 0
0.188865 0.0024971 0
-0.189018 0.00219126 0
-0.188194 0.00138291 0
-0.0459133 0.00759012 0
0.123454 0.00692997 0
-0.0609356 0.0176164 0
0.0408469 0.0101904 0
-0.190877 0.00229514 0
-0.0340698 0.0021749 0
-0.1913 -1.62675e-05 0
-0.192209 0.00304299 0
0.184469 -0.00227034 0
0.162243 0.00491961 0
-0.179602 0.00348832 0
0.171631 0.00279932 0
0.17018 0.00111773 0
-0.183325 0.00190071 0
-0.100833 -0.00287717 0
0.134533 -0.00765589 0
-0.183711 0.000838757 0
0.163013 -0.00372921 0
0.0749135 -0.00179145 0
-0.188516 -1.23714e-05 0
0.177122 0.000190861 0
0.18631 -0.000616624 0
0.189421 -0.00173705 0
0.192902 -0.000247147 0
0.196078 0.000504209 0
0.186101 0.00376188 0
-0.189948 0.00176335 0
0.137027 0.00504366 0
-0.156596 -0.00191913 0
0.0899318 0.0130647 0
-0.178795 0.00174681 0
-0.0634536 -0.00216222 0
-0.147994 0.0060192 0
0.0546144 -0.00613218 0
-0.193874 0.00230345 0
0.186177 -1.56159e-05 0
-0.0517339 0.0143995 0
0.0667335 0.00782527 0
[...]
      <PointData Scalars="T">
        <DataArray type="Float32" Name="T" format="ascii" NumberOfComponents="1">
310.168
376.645
310.765
310.765
366.401
409.276
310.765
430.215
310.765
366.401
310.765
310.168
366.401
374.374
412.54
310.168
374.374
300.868
300.759
366.401
366.401
310.168
395.838
301.626
310.765
310.168
374.374
310.765
366.401
366.401
366.401
374.374
300.65
310.765
310.168
310.765
300.828
398.5
374.374
374.374
310.168
310.168
374.374
300.72
300.571
366.401
310.168
310.765
301.073
301.287
310.168
374.374
366.401
304.192
404.974
390.741
310.765
310.168
310.168
310.765
310.168
303.162
310.765
310.765
366.401
432.564
310.765
302.371
310.168
300.602
366.401
310.168
300.587
310.168
310.168
374.374
310.168
366.401
310.168
415.713
374.374
366.401
310.168
411.266
310.765
366.401
310.765
374.374
366.401
374.374
310.168
430.073
310.765
366.401
374.374
366.401
310.168
366.401
366.401
374.374
374.374
374.374
302.285
374.374
302.213
310.168
310.168
310.168
310.168
374.374
366.401
366.401
366.401
310.168
310.168
366.401
366.401
310.168
415.713
374.374
310.765
374.374
310.765
366.401
302.285
302.407
310.168
310.168
374.374
302.389
310.765
301.777
428.292
366.401
310.765
310.765
310.765
366.401
310.765
310.765
310.765
310.168
310.765
374.374
366.401
310.765
366.401
409.132
374.374
366.401
310.168
302.368
374.374
310.765
310.168
310.168
310.765
376.645
374.374
301.672
310.765
374.374
393.331
390.741
366.401
310.765
310.765
310.168
310.168
411.555
310.765
366.401
374.374
310.168
374.374
366.401
394.771
374.374
374.374
374.374
301.531
366.401
366.401
310.168
302.389
310.765
310.765
300.797
310.765
310.168
310.765
310.765
374.374
310.168
366.401
300.935
366.401
366.401
366.401
310.168
366.401
303.641
310.765
374.374
310.765
374.374
310.168
310.765
366.401
374.374
300.693
374.374
310.765
366.401
374.374
366.401
366.401
301.578
374.374
366.401
366.401
366.401
374.374
310.765
310.168
368.701
300.574
302.365
366.401
432.958
374.374
310.168
310.168
366.401
366.401
366.401
310.765
374.374
366.401
310.765
301.456
374.374
366.401
374.374
310.168
310.168
366.401
302.365
303.459
310.168
310.168
366.401
310.765
374.374
366.401
301.598
366.401
310.168
310.168
300.904
300.582
366.401
310.765
310.765
366.401
426.278
372.465
374.374
310.765
302.365
302.418
374.374
310.168
310.168
366.401
413.609
301.777
369.424
310.168
374.374
428.799
374.374
404.974
310.765
366.401
374.374
366.401
366.401
366.401
310.765
366.401
302.418
310.765
310.168
310.168
310.168
310.168
366.401
409.712
423.948
300.582
366.401
310.765
310.168
302.373
310.168
366.401
310.168
407.275
366.401
366.401
310.168
366.401
310.765
310.765
366.401
310.765
310.765
310.765
310.168
366.401
366.401
301.34
302.418
310.168
429.839
366.401
300.757
374.374
303.123
310.765
310.765
310.168
366.401
432.473
374.374
310.765
310.765
366.401
310.765
366.401
366.401
366.401
366.401
374.374
310.168
366.401
432.219
366.401
310.765
310.765
366.401
304.808
310.765
374.374
310.168
366.401
374.374
310.168
310.765
310.168
374.374
414.182
374.374
366.401
310.765
374.374
366.401
310.168
424.425
366.401
366.401
310.168
310.765
366.401
310.765
374.374
374.374
430.482
310.765
374.374
310.168
366.401
410.226
366.401
310.168
366.401
310.168
366.401
366.401
374.374
366.401
310.765
310.168
366.401
310.168
300.828
367.142
374.374
310.765
428.292
310.765
310.765
374.374
302.223
310.765
310.765
310.765
301.162
310.168
377.867
310.168
374.374
310.168
382.598
374.374
366.401
310.765
366.401
310.765
366.401
310.168
366.401
301.086
302.227
310.168
310.765
366.401
393.331
310.765
366.401
310.168
390.216
310.168
436.047
374.374
366.401
366.401
310.168
300.842
366.401
310.765
407.275
437.141
374.374
366.401
374.374
310.168
310.765
374.374
302.743
374.374
374.374
310.765
310.765
374.374
366.401
411.555
374.374
300.617
374.374
300.859
366.401
374.374
302.209
310.168
374.374
374.374
366.401
366.401
310.168
411.198
310.765
310.765
310.168
366.401
366.401
366.401
301.632
310.168
416.593
374.374
374.374
391.885
300.821
310.168
302.373
300.526
366.401
310.168
310.168
300.545
370.587
310.168
310.765
438.563
310.765
369.424
366.401
366.401
374.374
437.141
374.374
374.374
374.374
310.765
310.765
310.765
310.168
310.765
310.168
310.168
374.374
310.168
384.688
310.765
310.168
366.401
310.168
366.401
415.713
366.401
416.593
310.168
310.765
310.168
310.765
310.765
310.765
366.401
310.168
310.168
409.964
310.168
408.73
366.401
374.374
310.765
310.765
366.401
366.401
374.374
374.374
374.374
310.168
310.168
301.283
310.168
374.374
366.401
310.168
366.401
300.678
310.168
374.374
366.401
310.765
366.401
310.168
310.168
374.374
310.168
374.374
310.765
430.934
366.401
300.834
310.765
374.374
374.374
425.824
376.645
366.401
310.168
310.765
310.765
300.582
310.168
374.374
414.223
431.028
374.374
366.401
310.168
310.765
366.401
310.168
374.374
300.545
310.168
300.88
398.5
310.168
374.374
430.709
310.168
310.765
374.374
310.168
366.401
310.765
310.765
310.168
301.946
374.374
374.374
366.401
434.461
310.168
374.374
310.765
374.374
374.374
310.168
301.777
374.374
374.374
366.401
366.401
310.765
310.765
366.401
426.859
374.374
310.168
310.765
366.401
366.401
310.765
310.765
310.168
310.168
394.771
374.374
374.374
374.374
374.374
310.168
366.401
310.168
303.641
374.374
366.401
301.727
310.765
374.374
366.401
310.765
374.374
374.374
371.467
310.765
374.374
408.919
310.168
366.401
386.464
310.765
310.168
367.609
310.168
310.765
408.716
310.168
302.367
366.401
366.401
310.765
302.227
301.777
310.168
310.168
431.029
429.839
366.401
366.401
310.168
366.401
374.374
300.637
310.168
366.401
408.919
366.401
310.765
310.168
310.168
310.168
366.401
302.26
310.765
418.78
366.401
303.641
310.765
310.168
310.168
302.743
366.401
310.168
304.752
310.765
366.401
310.168
366.401
310.765
310.168
310.765
310.168
310.765
366.401
301.228
422.197
310.168
369.062
366.401
366.401
310.765
374.374
310.168
366.401
301.777
310.168
374.374
310.765
425.824
374.374
431.079
408.919
366.401
366.401
302.369
310.765
310.765
301.858
310.765
413.518
310.168
366.401
429.8
310.765
310.765
374.545
300.619
366.401
310.168
366.401
366.401
366.401
374.374
374.374
300.65
366.401
310.168
366.401
374.374
366.401
374.374
374.374
301.598
310.168
310.765
366.401
374.374
366.401
409.309
374.374
366.401
374.374
310.168
367.142
374.374
310.765
310.765
302.371
413.609
366.401
374.374
310.168
374.374
300.821
366.401
374.374
374.374
310.168
301.777
310.168
300.938
310.765
366.401
366.401
310.765
366.401
310.168
413.609
310.168
392.607
374.374
304.653
366.401
300.942
366.401
366.401
310.765
300.834
374.374
310.168
310.765
300.913
310.168
366.401
374.374
429.8
310.168
366.401
300.942
310.168
310.765
310.765
432.682
366.401
300.943
366.401
366.401
310.765
301.727
310.168
310.765
366.401
374.374
310.168
366.401
302.368
310.168
366.401
366.401
303.877
424.013
310.765
302.372
366.401
366.401
310.765
300.637
366.401
374.374
374.374
310.168
300.948
414.223
366.401
390.217
413.518
374.374
310.765
366.401
310.765
412.54
310.765
302.023
412.356
310.765
409.673
310.168
310.765
366.401
374.374
303.972
310.765
310.168
310.168
310.168
310.168
366.401
310.168
310.765
428.724
310.765
310.168
366.401
301.612
310.765
310.168
366.401
366.401
374.374
310.765
374.374
310.765
374.374
398.5
366.401
310.168
374.374
428.998
374.374
310.765
429.979
366.401
310.765
303.034
374.374
374.374
310.765
366.401
310.765
310.765
374.374
310.168
374.374
301.911
310.765
310.168
310.765
310.168
310.168
366.401
302.251
310.765
310.765
366.401
310.765
374.374
366.401
374.374
310.765
310.168
377.867
374.374
366.401
310.765
366.401
366.401
301.456
302.372
310.168
310.168
366.401
408.919
310.765
366.401
310.168
366.401
374.374
300.945
374.374
310.765
366.401
374.374
366.401
366.401
366.401
414.223
374.374
366.401
366.401
310.168
420.993
310.765
310.765
310.765
310.765
310.168
366.401
301.672
366.401
310.168
366.401
310.168
301.515
374.374
310.168
366.401
310.765
310.168
310.765
374.374
310.765
366.401
300.617
374.374
374.374
310.168
374.374
366.401
366.401
374.374
310.765
310.168
310.168
310.168
374.374
310.765
441.492
310.765
300.832
310.168
310.168
304.653
310.765
310.765
374.374
310.168
304.728
374.374
366.401
310.765
366.401
300.571
366.401
374.374
366.401
411.198
374.374
367.142
303.162
374.374
310.168
413.729
310.765
366.401
310.168
366.401
366.401
310.168
310.168
366.401
310.765
310.168
301.329
300.678
374.374
366.401
427.159
429.586
310.765
366.401
300.972
366.401
366.401
310.765
310.765
366.401
310.168
310.765
301.287
310.765
366.401
301.531
310.168
366.401
366.401
366.401
374.374
366.401
310.765
366.401
310.765
374.374
301.052
310.765
310.168
366.401
374.374
374.374
366.401
310.765
310.168
374.374
310.765
300.82
374.374
374.374
310.765
366.401
300.88
310.765
310.168
374.374
366.401
366.401
366.401
310.168
432.11
310.168
409.712
366.401
302.372
310.168
310.168
310.765
310.168
427.543
421.682
374.374
369.062
302.373
303.37
310.168
310.168
310.168
310.168
374.374
366.401
366.401
366.401
428.354
367.142
371.467
300.972
310.765
310.765
302.343
310.765
369.424
310.765
366.401
300.666
374.374
366.401
310.168
404.974
424.732
310.765
432.108
310.765
310.765
310.765
310.765
310.168
310.168
310.765
310.168
374.374
300.626
409.309
310.168
310.168
301.456
374.374
310.765
374.374
310.168
310.168
310.168
310.168
366.401
310.765
366.401
310.168
301.504
310.765
428.734
426.551
428.292
310.765
310.765
374.374
310.168
390.216
303.459
310.765
374.374
366.401
423.827
310.765
310.168
366.401
302.418
366.401
303.579
366.401
366.401
412.281
366.401
310.765
310.765
374.374
366.401
366.401
366.401
310.765
374.374
310.168
366.401
310.168
304.192
366.401
382.598
310.168
366.401
301.946
310.765
310.765
366.401
300.706
310.765
374.374
366.401
310.765
366.401
302.372
366.401
366.401
302.364
374.374
374.374
301.632
301.552
310.168
310.765
310.168
374.374
302.642
310.168
366.401
366.401
310.765
369.062
310.168
300.545
413.59
376.645
310.168
429.6
411.266
300.781
310.765
430.925
412.54
310.765
366.401
420.993
374.374
374.374
366.401
310.765
310.765
366.401
366.401
310.765
374.374
310.765
310.168
310.168
366.401
366.401
310.765
411.618
310.168
366.401
310.168
310.765
409.132
310.765
310.765
374.374
368.701
374.374
374.374
366.401
366.401
366.401
366.401
310.168
301.598
310.765
366.401
310.765
366.401
373.423
301.698
366.401
366.401
310.168
372.465
374.374
310.765
374.374
374.374
310.168
366.401
310.168
302.166
310.765
310.765
366.401
303.972
300.93
366.401
366.401
310.168
366.401
366.401
300.859
310.765
302.209
374.374
302.418
366.401
300.938
310.765
422.959
367.142
369.424
310.765
301.589
366.401
366.401
366.401
374.374
302.046
374.374
310.765
374.374
374.374
301.329
310.168
310.765
374.374
310.168
310.765
310.168
412.339
310.765
423.827
428.724
366.401
377.867
414.598
374.374
374.374
310.168
310.168
374.374
366.401
366.401
310.765
366.401
366.401
366.401
374.374
374.374
310.765
310.765
310.168
366.401
310.168
310.168
302.369
374.374
310.765
301.022
310.168
300.625
310.168
366.401
418.957
425.758
366.401
411.233
310.765
374.374
374.374
310.168
366.401
374.374
366.401
409.364
395.838
366.401
432.219
310.765
374.374
374.374
366.401
374.374
366.401
310.765
374.374
366.401
310.765
310.765
310.765
374.374
374.374
366.401
310.168
367.142
374.374
300.967
366.401
366.401
366.401
310.168
366.401
310.168
310.168
310.765
374.374
310.765
300.942
374.374
430.603
310.765
310.168
374.374
366.401
366.401
310.765
366.401
374.374
366.401
310.168
310.168
310.765
310.168
374.374
366.401
367.142
310.765
310.168
366.401
310.168
310.168
427.159
374.374
374.374
310.168
310.168
310.168
392.607
310.168
425.758
310.168
366.401
366.401
410.226
304.547
301.777
310.765
310.765
374.374
310.765
310.765
413.59
373.423
310.168
310.168
301.201
366.401
310.765
366.401
310.765
310.168
310.765
300.781
431.029
366.401
429.313
310.168
310.765
310.765
302.209
366.401
310.168
366.401
302.642
301.607
310.168
374.374
301.019
374.545
310.168
310.168
310.765
428.845
310.765
310.765
310.765
310.765
310.168
421.682
310.168
310.765
366.401
374.374
430.215
408.245
366.401
366.401
408.73
366.401
310.765
302.364
374.374
310.168
366.401
413.404
395.838
310.765
374.374
374.374
303.641
310.765
310.168
310.168
310.168
410.226
303.579
310.168
310.765
310.168
366.401
300.73
417.289
374.374
374.374
310.765
374.374
366.401
366.401
366.401
366.401
366.401
424.013
366.401
303.113
310.168
310.765
380.179
310.765
390.741
310.765
310.168
366.401
300.742
301.162
310.168
310.168
310.765
412.415
310.765
300.603
366.401
310.168
410.253
310.168
366.401
310.765
301.578
366.401
366.401
374.374
366.401
374.374
366.401
310.765
310.765
310.765
374.374
310.168
366.401
302.365
374.374
310.168
369.062
366.401
374.374
366.401
301.565
310.765
374.374
310.765
310.168
374.374
366.401
301.456
310.168
366.401
310.168
310.168
310.765
301.727
310.765
374.374
366.401
374.374
374.374
310.168
310.765
310.168
300.821
310.765
366.401
429.586
429.313
310.765
300.594
302.285
310.765
366.401
310.765
310.168
310.168
310.168
301.632
310.168
366.401
366.401
366.401
310.168
382.598
366.401
302.134
300.582
301.552
300.54
366.401
310.168
366.401
310.168
310.168
366.401
310.765
374.374
374.374
374.374
302.372
374.374
374.374
411.182
374.374
432.958
366.401
374.374
374.374
412.339
310.765
366.401
366.401
310.168
310.168
310.765
302.389
310.168
380.179
366.401
310.168
374.374
374.374
310.168
402.102
374.374
301.283
310.168
310.765
366.401
366.401
310.765
366.401
366.401
310.765
441.088
300.781
301.134
310.765
302.369
366.401
366.401
366.401
310.765
377.867
366.401
366.401
366.401
374.374
366.401
310.168
374.374
366.401
373.423
310.168
366.401
310.765
366.401
411.555
310.168
367.142
374.374
310.765
302.363
441.492
427.398
425.758
301.612
411.618
369.062
413.664
374.374
366.401
374.374
374.374
310.168
310.765
374.374
366.401
310.765
310.168
310.765
374.374
310.765
310.765
310.168
310.168
366.401
374.374
366.401
380.179
301.515
408.919
310.168
395.838
374.374
374.374
310.765
300.515
374.374
366.401
310.765
412.623
310.168
310.765
310.168
310.765
310.765
310.168
404.974
374.374
374.374
366.401
310.765
301.672
374.374
301.287
414.182
366.401
366.401
374.374
366.401
303.579
310.765
376.645
374.374
302.487
310.168
366.401
310.765
366.401
302.213
310.765
302.373
366.401
310.168
310.765
310.765
310.168
374.374
300.515
374.374
374.374
310.765
302.285
374.374
412.709
310.168
310.765
310.765
374.374
374.374
367.142
303.518
304.728
374.374
310.168
310.765
426.551
310.765
310.168
366.401
374.374
431.079
366.401
366.401
417.084
366.401
366.401
303.259
374.374
300.569
374.374
374.374
310.168
409.712
366.401
366.401
374.374
310.765
366.401
374.374
302.783
366.401
416.364
366.401
310.168
302.371
310.168
310.765
374.374
374.374
369.062
432.958
404.974
366.401
374.374
368.237
394.771
310.765
310.168
310.168
300.951
300.65
374.374
426.859
310.168
310.168
374.374
374.374
373.423
310.765
409.712
366.401
366.401
310.765
366.401
310.765
310.168
300.637
310.765
366.401
310.168
366.401
366.401
374.374
310.168
366.401
310.168
300.868
301.447
301.589
366.401
374.374
300.944
301.607
300.821
310.168
310.168
310.765
374.374
310.765
310.765
366.401
429.902
366.401
310.765
302.227
310.765
395.838
410.226
366.401
310.168
366.401
310.168
407.633
301.047
310.765
310.765
302.285
366.401
310.168
374.374
300.989
301.598
310.168
366.401
374.374
374.374
366.401
374.374
374.374
301.228
366.401
428.724
310.765
310.765
302.368
366.401
366.401
374.374
374.374
310.168
366.401
430.073
374.374
310.168
366.401
430.636
302.418
368.701
310.168
374.374
310.765
392.607
374.374
310.168
366.401
310.765
440.535
366.401
310.765
310.168
374.374
368.701
366.401
310.765
366.401
374.374
302.369
430.215
310.168
310.168
429.07
310.168
310.765
310.765
310.765
300.954
374.374
310.765
310.168
422.391
310.168
366.401
374.374
374.374
366.401
374.374
310.765
374.374
310.168
310.168
310.168
310.765
310.168
310.765
310.765
310.168
374.374
303.034
310.168
374.374
310.765
310.765
304.192
300.582
374.374
310.765
310.765
374.374
310.168
374.374
374.374
310.765
366.401
366.401
310.765
366.401
302.724
300.945
310.168
302.367
310.765
310.765
310.765
301.727
300.617
366.401
374.374
430.709
304.653
300.944
366.401
310.765
310.765
428.724
310.765
310.168
310.765
310.765
310.765
370.587
310.168
310.765
366.401
310.765
374.374
310.168
302.373
310.168
366.401
374.374
310.168
366.401
366.401
310.765
310.765
310.765
366.401
310.168
300.684
423.912
374.545
310.765
310.765
310.168
374.374
374.374
374.374
302.407
310.168
310.765
431.221
366.401
310.765
300.929
310.168
310.168
310.765
366.401
310.168
374.374
310.168
366.401
366.401
302.724
310.168
366.401
407.561
310.168
374.374
422.329
416.153
423.827
366.401
372.465
374.374
310.765
310.765
433.126
303.259
431.597
310.168
310.765
374.374
302.363
310.765
366.401
310.765
416.328
407.633
366.401
366.401
310.168
310.168
310.765
374.374
310.765
374.374
310.765
310.765
393.331
374.374
366.401
300.859
300.942
310.168
301.25
374.374
310.765
366.401
310.765
366.401
302.367
366.401
366.401
310.168
310.765
374.374
301.578
366.401
304.507
366.401
374.374
374.374
374.374
310.765
366.401
374.374
412.281
374.374
374.374
310.765
366.401
310.765
310.765
310.168
310.765
310.168
310.765
366.401
374.374
408.73
310.168
310.168
371.467
310.765
301.626
302.365
310.765
366.401
366.401
310.168
310.168
310.765
301.777
428.292
300.571
374.374
395.838
366.401
310.765
366.401
300.759
374.374
310.765
366.401
374.374
310.168
366.401
310.168
310.765
310.168
433.554
431.028
301.086
310.765
310.765
310.765
310.168
431.221
310.168
301.25
366.401
302.213
310.168
310.765
374.374
310.168
310.168
374.374
409.132
412.281
301.073
310.765
408.477
366.401
429.07
374.374
310.765
310.765
366.401
374.374
302.371
374.374
366.401
366.401
310.765
310.168
374.374
424.013
374.374
310.765
374.374
374.374
303.579
310.168
310.168
310.168
366.401
374.374
374.374
374.374
310.168
310.765
310.168
302.213
366.401
366.401
366.401
366.401
374.374
367.609
408.919
300.797
302.487
310.765
310.765
374.374
374.374
389.152
366.401
366.401
310.765
418.256
310.168
310.168
310.765
374.374
374.374
310.765
310.168
310.765
374.374
310.168
370.016
366.401
301.946
302.26
310.765
310.765
310.168
310.168
310.168
310.168
310.765
310.765
413.404
310.765
366.401
310.168
366.401
366.401
410.226
310.765
302.407
429.49
310.168
366.401
374.374
369.424
374.374
310.765
366.401
412.356
310.765
300.569
374.374
366.401
366.401
415.713
310.765
310.765
310.765
434.937
300.626
300.88
310.765
430.482
429.313
302.26
301.911
310.168
303.37
302.227
310.168
374.374
302.389
300.54
303.37
366.401
366.401
366.401
366.401
366.401
310.765
430.215
423.589
366.401
366.401
366.401
301.447
301.134
310.765
366.401
310.765
310.765
310.765
310.765
310.168
366.401
366.401
374.374
310.765
408.919
310.765
374.374
310.765
413.518
412.281
366.401
310.168
374.374
374.374
310.168
374.374
300.938
366.401
301.142
310.168
310.168
429.902
310.168
370.587
374.374
310.765
366.401
310.765
310.765
310.168
310.168
310.168
366.401
310.168
419.69
374.374
300.621
374.374
374.374
418.957
310.765
366.401
411.182
366.401
302.389
374.374
366.401
310.168
310.765
310.765
374.374
375.515
300.54
377.867
366.401
310.168
374.374
366.401
374.374
366.401
374.374
366.401
368.701
300.945
310.168
366.401
374.374
310.765
310.765
374.374
366.401
310.168
300.944
310.168
366.401
366.401
310.765
374.374
366.401
374.374
300.65
310.765
310.765
301.478
310.168
303.877
310.168
310.765
366.401
432.31
416.153
412.415
374.374
366.401
310.168
366.401
310.168
300.944
366.401
310.765
310.168
374.374
374.374
300.942
366.401
366.401
310.168
366.401
413.404
366.401
366.401
374.374
366.401
374.374
366.401
366.401
310.168
374.374
374.374
366.401
374.374
310.168
300.989
310.168
310.168
366.401
374.374
310.765
366.401
366.401
433.914
310.765
310.765
366.401
374.374
310.168
310.765
374.374
366.401
374.374
374.374
366.401
310.765
366.401
374.374
310.168
303.113
366.401
374.374
310.765
310.765
366.401
374.374
371.467
366.401
431.926
310.765
310.168
310.168
310.168
310.168
366.401
310.765
310.765
310.168
366.401
374.374
366.401
374.374
310.168
310.765
302.213
310.765