<?xml version="1.0"?>
<VTKFile type="ImageData" version="0.1" byte_order="LittleEndian">
  <ImageData Origin="0 0 0" Spacing="1e-05 1e-05 1e-05" WholeExtent="0 191 0 191 0 0">
    <Piece Extent="0 191 0 191 0 0">
      <CellData Scalars="T">
        <DataArray type="Float32" Name="T" format="ascii" NumberOfComponents="1">
617.607
15000
15000
15000
15000
15000
15000
15000
15000
15000
15000
15000
15000
15000
15000
15000
15000
15000
15000
15000
15000
15000
15000
15000
15000
15000
15000
15000
15000
15000
15000
14999.9
14999.9
14999.9
14999.9
14999.8
14999.8
14999.7
14999.6
14999.5
14999.4
14999.3
14999.1
14998.9
14998.6
14998.2
14997.8
14997.3
14996.6
14995.9
14994.9
14993.8
14992.5
14990.9
14988.9
14986.6
14983.9
14980.7
14977
14972.5
14967.4
14961.3
14954.3
14946.1
14936.7
14925.9
14913.4
14899.2
14882.9
14864.4
14843.5
14819.8
14793
14763
14729.4
14691.8
14650
14603.6
14552.2
14495.5
14433.1
14364.7
14289.9
14208.4
14119.8
14023.8
13920.1
13808.3
13688.3
13559.9
13422.7
13276.7
13121.7
12957.8
12784.8
12602.9
12412.1
12212.5
12004.5
11788.3
11564.2
11332.6
11094
10848.9
10597.9
10341.5
10080.5
9815.63
9547.53
9277.02
9004.9
8732
8459.15
8187.18
7916.94
7649.25
7384.92
7124.74
6869.48
6619.86
6376.58
6140.28
5911.55
5690.94
5478.95
5276
5082.47
4898.67
4724.87
4561.25
4407.96
4265.08
4132.62
4010.57
3898.85
3797.33
3705.85
3624.2
3552.14
3489.39
3435.66
3390.61
3353.91
3325.18
3304.04
3290.11
3282.99
3282.28
3287.57
3298.45
3314.52
3335.39
3360.65
3389.91
3422.79
3458.92
3497.92
3539.45
3583.15
3628.69
3675.74
3723.98
3773.11
3822.83
3872.86
3922.93
3972.77
4022.15
4070.81
4118.54
4165.12
4210.35
4254.04
4296.01
4336.08
4374.1
4409.88
4443.26
4474
4501.8
4526.15
4546.18
4560.32
4565.59
4556.33
4521.69
4440.82
4273.23
3939.48
3279.68
1956.54
329.178
2137.95
15000
15000
15000
15000
15000
15000
15000
15000
15000
15000
15000
15000
15000
15000
15000
15000
15000
15000
15000
15000
15000
15000
15000
15000
15000
15000
15000
15000
15000
15000
14999.9
14999.9
14999.9
14999.9
14999.8
14999.8
14999.7
14999.6
14999.5
14999.4
14999.3
14999.1
14998.9
14998.6
14998.2
14997.8
14997.3
14996.6
14995.9
14994.9
14993.8
14992.5
14990.9
14988.9
14986.7
14983.9
14980.7
14977
14972.5
14967.4
14961.3
14954.3
14946.1
14936.7
14925.9
14913.5
14899.2
14883
14864.5
14843.5
14819.8
14793.1
14763.1
14729.4
14691.9
14650
14603.6
14552.2
14495.6
14433.2
14364.8
14290
14208.5
14119.9
14023.9
13920.2
13808.5
13688.5
13560
13422.9
13276.9
13122
12958
12785.1
12603.1
12412.3
12212.8
12004.8
11788.6
11564.5
11332.9
11094.3
10849.2
10598.1
10341.8
10080.8
9815.84
9547.72
9277.18
9005.04
8732.1
8459.21
8187.21
7916.92
7649.18
7384.8
7124.56
6869.24
6619.56
6376.21
6139.83
5911.03
5690.34
5478.26
5275.23
5081.61
4897.73
4723.83
4560.12
4406.73
4263.75
4131.2
4009.04
3897.22
3795.6
3704.02
3622.26
3550.1
3487.26
3433.43
3388.28
3351.48
3322.66
3301.43
3287.41
3280.21
3279.41
3284.62
3295.42
3311.42
3332.21
3357.41
3386.6
3419.43
3455.5
3494.46
3535.94
3579.6
3625.1
3672.12
3720.33
3769.43
3819.14
3869.16
3919.22
3969.06
4018.43
4067.1
4114.84
4161.43
4206.68
4250.39
4292.38
4332.48
4370.52
4406.34
4439.75
4470.53
4498.36
4522.76
4542.85
4557.06
4562.44
4553.41
4519.32
4439.88
4276.47
3956.1
3343.45
2202.61
423.266
2149.29
15000
15000
15000
15000
15000
15000
15000
15000
15000
15000
15000
15000
15000
15000
15000
15000
15000
15000
15000
15000
15000
15000
15000
15000
15000
15000
15000
15000
15000
15000
14999.9
14999.9
14999.9
14999.9
14999.8
14999.8
14999.7
14999.6
14999.5
14999.4
14999.3
14999.1
14998.9
14998.6
14998.2
14997.8
14997.3
14996.6
14995.9
14994.9
14993.8
14992.5
14990.9
14988.9
14986.7
14983.9
14980.7
14977
14972.6
14967.4
14961.3
14954.3
14946.2
14936.8
14925.9
14913.5
14899.3
14883
14864.5
14843.6
14819.9
14793.2
14763.1
14729.5
14692
14650.2
14603.8
14552.4
14495.7
14433.4
14365
14290.3
14208.8
14120.2
14024.2
13920.5
13808.8
13688.9
13560.4
13423.3
13277.3
13122.4
12958.5
12785.5
12603.6
12412.8
12213.3
12005.3
11789.1
11565
11333.4
11094.8
10849.7
10598.6
10342.2
10081.2
9816.26
9548.09
9277.51
9005.31
8732.31
8459.35
8187.26
7916.88
7649.05
7384.56
7124.21
6868.77
6618.96
6375.47
6138.95
5910
5689.15
5476.91
5273.71
5079.91
4895.85
4721.77
4557.87
4404.28
4261.1
4128.35
4006
3893.98
3792.15
3700.37
3618.41
3546.05
3483.01
3428.98
3383.64
3346.65
3317.64
3296.23
3282.03
3274.65
3273.69
3278.73
3289.38
3305.23
3325.89
3350.94
3380.02
3412.72
3448.69
3487.54
3528.93
3572.51
3617.94
3664.89
3713.05
3762.11
3811.78
3861.77
3911.81
3961.64
4011.02
4059.7
4107.45
4154.07
4199.35
4243.1
4285.13
4325.28
4363.38
4399.27
4432.74
4463.6
4491.51
4515.99
4536.18
4550.53
4556.12
4547.46
4514.18
4436.58
4277.6
3967.91
3379.24
2275.97
427.463
2140.72
15000
15000
15000
15000
15000
15000
15000
15000
15000
15000
15000
15000
15000
15000
15000
15000
15000
15000
15000
15000
15000
15000
15000
15000
15000
15000
15000
15000
15000
15000
14999.9
14999.9
14999.9
14999.9
14999.8
14999.8
14999.7
14999.6
14999.6
14999.4
14999.3
14999.1
14998.9
14998.6
14998.2
14997.8
14997.3
14996.6
14995.9
14994.9
14993.8
14992.5
14990.9
14989
14986.7
14984
14980.8
14977
14972.6
14967.4
14961.4
14954.3
14946.2
14936.8
14926
14913.5
14899.3
14883.1
14864.6
14843.7
14820
14793.3
14763.3
14729.7
14692.1
14650.3
14604
14552.6
14496
14433.7
14365.3
14290.6
14209.1
14120.6
14024.6
13921
13809.3
13689.4
13561
13423.9
13277.9
13123
12959.2
12786.2
12604.4
12413.6
12214.1
12006.1
11789.9
11565.8
11334.2
11095.6
10850.5
10599.4
10343
10081.9
9816.88
9548.66
9278
9005.71
8732.62
8459.55
8187.34
7916.84
7648.85
7384.21
7123.7
6868.07
6618.07
6374.38
6137.65
5908.46
5687.39
5474.9
5271.44
5077.38
4893.05
4718.69
4554.51
4400.64
4257.17
4124.12
4001.47
3889.14
3787.02
3694.93
3612.68
3540.02
3476.67
3422.35
3376.73
3339.45
3310.16
3288.47
3274.01
3266.37
3265.16
3269.96
3280.38
3296.01
3316.45
3341.31
3370.19
3402.72
3438.52
3477.23
3518.48
3561.93
3607.25
3654.11
3702.18
3751.17
3800.79
3850.74
3900.75
3950.57
3999.95
4048.64
4096.42
4143.07
4188.4
4232.2
4274.31
4314.53
4352.72
4388.69
4422.27
4453.23
4481.26
4505.87
4526.21
4540.74
4546.59
4538.38
4505.93
4430.02
4274.55
3972
3396.87
2317.55
436.422
2125.04
15000
15000
15000
15000
15000
15000
15000
15000
15000
15000
15000
15000
15000
15000
15000
15000
15000
15000
15000
15000
15000
15000
15000
15000
15000
15000
15000
15000
15000
15000
14999.9
14999.9
14999.9
14999.9
14999.8
14999.8
14999.7
14999.6
14999.6
14999.4
14999.3
14999.1
14998.9
14998.6
14998.2
14997.8
14997.3
14996.7
14995.9
14995
14993.8
14992.5
14990.9
14989
14986.7
14984
14980.8
14977
14972.6
14967.4
14961.4
14954.4
14946.2
14936.9
14926
14913.6
14899.4
14883.2
14864.7
14843.8
14820.1
14793.4
14763.4
14729.9
14692.4
14650.6
14604.2
14552.9
14496.3
14434
14365.7
14291
14209.6
14121.1
14025.2
13921.6
13810
13690.1
13561.7
13424.7
13278.8
13123.9
12960.1
12787.2
12605.3
12414.6
12215.1
12007.2
11791
11566.9
11335.3
11096.6
10851.5
10600.4
10343.9
10082.8
9817.72
9549.41
9278.66
9006.26
8733.04
8459.83
8187.47
7916.78
7648.61
7383.76
7123.03
6867.17
6616.91
6372.95
6135.93
5906.45
5685.06
5472.25
5268.46
5074.06
4889.37
4714.64
4550.09
4395.84
4251.98
4118.54
3995.49
3882.77
3780.24
3687.76
3605.1
3532.04
3468.31
3413.6
3367.58
3329.93
3300.27
3278.22
3263.4
3255.42
3253.87
3258.35
3268.46
3283.8
3303.96
3328.55
3357.18
3389.48
3425.06
3463.56
3504.63
3547.92
3593.09
3639.82
3687.78
3736.68
3786.22
3836.12
3886.1
3935.9
3985.27
4033.97
4081.78
4128.48
4173.87
4217.75
4259.94
4300.27
4338.57
4374.66
4408.37
4439.48
4467.66
4492.43
4512.95
4527.71
4533.86
4526.11
4494.42
4419.89
4266.84
3968.12
3397.16
2314.03
437.39
2114.66
15000
15000
15000
15000
15000
15000
15000
15000
15000
15000
15000
15000
15000
15000
15000
15000
15000
15000
15000
15000
15000
15000
15000
15000
15000
15000
15000
15000
15000
15000
14999.9
14999.9
14999.9
14999.9
14999.8
14999.8
14999.7
14999.6
14999.6
14999.4
14999.3
14999.1
14998.9
14998.6
14998.2
14997.8
14997.3
14996.7
14995.9
14995
14993.8
14992.5
14990.9
14989
14986.7
14984
14980.8
14977
14972.6
14967.5
14961.4
14954.4
14946.3
14936.9
14926.1
14913.7
14899.5
14883.3
14864.8
14843.9
14820.3
14793.6
14763.7
14730.1
14692.6
14650.9
14604.6
14553.3
14496.7
14434.5
14366.2
14291.6
14210.2
14121.8
14025.9
13922.3
13810.8
13690.9
13562.6
13425.6
13279.8
13125
12961.2
12788.4
12606.6
12415.9
12216.4
12008.5
11792.3
11568.2
11336.6
11098
10852.8
10601.6
10345.1
10083.9
9818.77
9550.36
9279.49
9006.96
8733.58
8460.19
8187.64
7916.74
7648.33
7383.23
7122.22
6866.06
6615.5
6371.2
6133.84
5903.99
5682.22
5469.01
5264.8
5069.96
4884.83
4709.66
4544.64
4389.91
4245.58
4111.65
3988.12
3874.9
3771.88
3678.9
3595.75
3522.2
3457.97
3402.78
3356.29
3318.16
3288.04
3265.54
3250.28
3241.87
3239.91
3243.99
3253.72
3268.68
3288.49
3312.75
3341.07
3373.08
3408.39
3446.64
3487.48
3530.56
3575.54
3622.11
3669.93
3718.72
3768.16
3817.99
3867.91
3917.69
3967.05
4015.78
4063.62
4110.38
4155.84
4199.81
4242.11
4282.56
4320.99
4357.24
4391.11
4422.39
4450.75
4475.73
4496.47
4511.48
4517.96
4510.66
4479.67
4406.23
4254.87
3958.4
3389.23
2305.56
436.523
2108.67
15000
15000
15000
15000
15000
15000
15000
15000
15000
15000
15000
15000
15000
15000
15000
15000
15000
15000
15000
15000
15000
15000
15000
15000
15000
15000
15000
15000
15000
15000
14999.9
14999.9
14999.9
14999.9
14999.8
14999.8
14999.7
14999.6
14999.6
14999.4
14999.3
14999.1
14998.9
14998.6
14998.2
14997.8
14997.3
14996.7
14995.9
14995
14993.8
14992.5
14990.9
14989
14986.7
14984
14980.8
14977.1
14972.7
14967.5
14961.5
14954.5
14946.4
14937
14926.2
14913.8
14899.6
14883.4
14865
14844.1
14820.5
14793.8
14763.9
14730.4
14692.9
14651.3
14605
14553.7
14497.2
14435
14366.8
14292.2
14210.9
14122.5
14026.7
13923.2
13811.7
13692
13563.7
13426.8
13281
13126.3
12962.5
12789.8
12608
12417.3
12218
12010
11793.9
11569.8
11338.2
11099.5
10854.3
10603.1
10346.6
10085.3
9820.04
9551.51
9280.5
9007.8
8734.24
8460.65
8187.86
7916.71
7648.03
7382.63
7121.29
6864.79
6613.85
6369.17
6131.38
5901.1
5678.87
5465.19
5260.49
5065.15
4879.49
4703.78
4538.21
4382.93
4238.03
4103.52
3979.41
3865.6
3762
3668.43
3584.69
3510.55
3445.75
3389.98
3342.92
3304.23
3273.56
3250.52
3234.74
3225.82
3223.37
3226.97
3236.24
3250.76
3270.16
3294.02
3321.97
3353.62
3388.6
3426.55
3467.11
3509.94
3554.7
3601.07
3648.73
3697.37
3746.7
3796.43
3846.3
3896.04
3945.4
3994.13
4042.02
4088.84
4134.38
4178.46
4220.88
4261.48
4300.07
4336.49
4370.55
4402.03
4430.61
4455.82
4476.82
4492.12
4498.95
4492.1
4461.75
4389.26
4239.37
3945.07
3378.77
2295.57
437.866
2097.7
15000
15000
15000
15000
15000
15000
15000
15000
15000
15000
15000
15000
15000
15000
15000
15000
15000
15000
15000
15000
15000
15000
15000
15000
15000
15000
15000
15000
15000
15000
14999.9
14999.9
14999.9
14999.9
14999.8
14999.8
14999.7
14999.6
14999.6
14999.4
14999.3
14999.1
14998.9
14998.6
14998.2
14997.8
14997.3
14996.7
14995.9
14995
14993.9
14992.5
14990.9
14989
14986.7
14984
14980.8
14977.1
14972.7
14967.5
14961.5
14954.5
14946.4
14937.1
14926.3
14913.9
14899.8
14883.6
14865.2
14844.3
14820.7
14794.1
14764.2
14730.7
14693.3
14651.7
14605.4
14554.2
14497.8
14435.6
14367.5
14293
14211.7
14123.4
14027.7
13924.3
13812.8
13693.2
13565
13428.1
13282.4
13127.8
12964.1
12791.4
12609.7
12419.1
12219.7
12011.9
11795.7
11571.7
11340.1
11101.4
10856.1
10604.9
10348.3
10086.9
9821.52
9552.85
9281.68
9008.81
8735.04
8461.21
8188.16
7916.72
7647.72
7381.98
7120.27
6863.37
6612.01
6366.87
6128.61
5897.83
5675.08
5460.85
5255.58
5059.66
4873.4
4697.07
4530.88
4374.95
4229.39
4094.23
3969.44
3854.96
3750.68
3656.43
3572.01
3497.2
3431.73
3375.29
3327.58
3288.24
3256.94
3233.28
3216.89
3207.38
3204.35
3207.4
3216.14
3230.16
3249.06
3272.46
3299.97
3331.21
3365.82
3403.41
3443.65
3486.19
3530.69
3576.82
3624.28
3672.75
3721.94
3771.57
3821.37
3871.06
3920.4
3969.15
4017.08
4063.96
4109.6
4153.8
4196.36
4237.11
4275.89
4312.51
4346.78
4378.49
4407.32
4432.79
4454.07
4469.69
4476.89
4470.51
4440.79
4369.21
4220.67
3928.6
3366.78
2297.14
439.335
2070.52
15000
15000
15000
15000
15000
15000
15000
15000
15000
15000
15000
15000
15000
15000
15000
15000
15000
15000
15000
15000
15000
15000
15000
15000
15000
15000
15000
15000
15000
15000
14999.9
14999.9
14999.9
14999.9
14999.8
14999.8
14999.7
14999.6
14999.6
14999.4
14999.3
14999.1
14998.9
14998.6
14998.2
14997.8
14997.3
14996.7
14995.9
14995
14993.9
14992.5
14990.9
14989
14986.8
14984.1
14980.9
14977.1
14972.7
14967.6
14961.6
14954.6
14946.5
14937.2
14926.4
14914.1
14899.9
14883.8
14865.4
14844.5
14821
14794.4
14764.5
14731.1
14693.7
14652.1
14606
14554.8
14498.4
14436.4
14368.3
14293.8
14212.6
14124.4
14028.8
13925.4
13814.1
13694.5
13566.4
13429.6
13284
13129.5
12965.9
12793.2
12611.6
12421.1
12221.8
12013.9
11797.8
11573.8
11342.2
11103.5
10858.2
10606.9
10350.2
10088.7
9823.22
9554.41
9283.06
9009.98
8735.98
8461.89
8188.54
7916.78
7647.43
7381.29
7119.17
6861.83
6609.99
6364.35
6125.56
5894.22
5670.88
5456.04
5250.14
5053.56
4866.63
4689.6
4522.69
4366.04
4219.75
4083.84
3958.3
3843.06
3738.01
3643
3557.82
3482.25
3416.01
3358.83
3310.37
3270.31
3238.28
3213.92
3196.85
3186.67
3182.99
3185.42
3193.55
3206.99
3225.34
3248.21
3275.23
3306
3340.17
3377.36
3417.23
3459.44
3503.63
3549.5
3596.72
3645
3694.03
3743.53
3793.23
3842.87
3892.19
3940.94
3988.91
4035.87
4081.6
4125.93
4168.64
4209.57
4248.55
4285.38
4319.9
4351.86
4380.96
4406.72
4428.32
4444.29
4451.89
4446
4416.92
4346.27
4199.18
3909.43
3351.24
2284.82
439.807
2077.35
15000
15000
15000
15000
15000
15000
15000
15000
15000
15000
15000
15000
15000
15000
15000
15000
15000
15000
15000
15000
15000
15000
15000
15000
15000
15000
15000
15000
15000
15000
14999.9
14999.9
14999.9
14999.9
14999.8
14999.8
14999.7
14999.6
14999.6
14999.4
14999.3
14999.1
14998.9
14998.6
14998.2
14997.8
14997.3
14996.7
14995.9
14995
14993.9
14992.5
14991
14989
14986.8
14984.1
14980.9
14977.2
14972.8
14967.7
14961.7
14954.7
14946.6
14937.3
14926.6
14914.2
14900.1
14884
14865.6
14844.8
14821.3
14794.7
14764.9
14731.5
14694.2
14652.7
14606.5
14555.5
14499.1
14437.1
14369.1
14294.8
14213.7
14125.5
14030
13926.7
13815.5
13696
13568
13431.3
13285.8
13131.3
12967.8
12795.3
12613.7
12423.3
12224
12016.2
11800.2
11576.1
11344.5
11105.8
10860.5
10609.2
10352.4
10090.8
9825.15
9556.17
9284.63
9011.32
8737.07
8462.69
8189.02
7916.91
7647.16
7380.61
7118.03
6860.19
6607.83
6361.63
6122.25
5890.3
5666.31
5450.8
5244.2
5046.9
4859.22
4681.43
4513.74
4356.29
4209.18
4072.45
3946.07
3830
3724.1
3628.24
3542.22
3465.8
3398.72
3340.71
3291.43
3250.56
3217.73
3192.59
3174.75
3163.83
3159.43
3161.15
3168.61
3181.4
3199.14
3221.42
3247.88
3278.13
3311.81
3348.55
3388
3429.82
3473.68
3519.24
3566.2
3614.25
3663.09
3712.45
3762.04
3811.6
3860.89
3909.65
3957.65
4004.68
4050.52
4094.97
4137.85
4178.97
4218.16
4255.24
4290.01
4322.25
4351.65
4377.73
4399.67
4416.01
4424.03
4418.66
4390.26
4320.62
4175.23
3888.81
3338.68
2296.83
448.301
2069.74
15000
15000
15000
15000
15000
15000
15000
15000
15000
15000
15000
15000
15000
15000
15000
15000
15000
15000
15000
15000
15000
15000
15000
15000
15000
15000
15000
15000
15000
15000
14999.9
14999.9
14999.9
14999.9
14999.8
14999.8
14999.7
14999.7
14999.6
14999.4
14999.3
14999.1
14998.9
14998.6
14998.3
14997.8
14997.3
14996.7
14995.9
14995
14993.9
14992.6
14991
14989.1
14986.8
14984.1
14981
14977.2
14972.8
14967.7
14961.7
14954.8
14946.7
14937.4
14926.7
14914.4
14900.3
14884.2
14865.9
14845.1
14821.6
14795.1
14765.3
14732
14694.7
14653.2
14607.2
14556.2
14499.9
14438
14370.1
14295.8
14214.8
14126.8
14031.3
13928.2
13817
13697.6
13569.8
13433.2
13287.8
13133.4
12970
12797.6
12616.1
12425.7
12226.5
12018.8
11802.7
11578.7
11347.1
11108.4
10863.1
10611.7
10354.8
10093.1
9827.3
9558.14
9286.4
9012.85
8738.32
8463.63
8189.62
7917.12
7646.95
7379.94
7116.87
6858.5
6605.57
6358.77
6118.75
5886.13
5661.44
5445.2
5237.84
5039.75
4851.26
4672.64
4504.09
4345.78
4197.78
4060.15
3932.86
3815.87
3709.05
3612.27
3525.32
3447.98
3379.99
3321.06
3270.88
3229.12
3195.42
3169.42
3150.74
3139
3133.81
3134.77
3141.48
3153.56
3170.61
3192.25
3218.09
3247.77
3280.9
3317.14
3356.13
3397.52
3440.99
3486.22
3532.88
3580.67
3629.3
3678.48
3727.94
3777.42
3826.66
3875.41
3923.44
3970.54
4016.49
4061.08
4104.13
4145.45
4184.86
4222.19
4257.24
4289.77
4319.49
4345.91
4368.22
4384.95
4393.43
4388.6
4360.91
4292.29
4148.49
3864.68
3318.17
2274.17
441.464
2052.34
15000
15000
15000
15000
14999.9
14999.9
14999.9
14999.9
14999.9
14999.9
14999.9
15000
15000
15000
15000
15000
15000
15000
15000
15000
15000
15000
15000
15000
15000
15000
15000
15000
15000
15000
14999.9
14999.9
14999.9
14999.9
14999.8
14999.8
14999.7
14999.7
14999.6
14999.4
14999.3
14999.1
14998.9
14998.6
14998.3
14997.8
14997.3
14996.7
14995.9
14995
14993.9
14992.6
14991
14989.1
14986.8
14984.2
14981
14977.3
14972.9
14967.8
14961.8
14954.9
14946.9
14937.6
14926.8
14914.6
14900.5
14884.4
14866.1
14845.4
14821.9
14795.5
14765.8
14732.5
14695.3
14653.9
14607.9
14557
14500.8
14439
14371.1
14296.9
14216.1
14128.1
14032.8
13929.7
13818.7
13699.4
13571.7
13435.2
13289.9
13135.7
12972.4
12800
12618.6
12428.3
12229.2
12021.6
11805.6
11581.6
11350
11111.3
10865.9
10614.4
10357.4
10095.6
9829.67
9560.34
9288.37
9014.57
8739.74
8464.72
8190.34
7917.43
7646.82
7379.31
7115.71
6856.77
6603.24
6355.79
6115.1
5881.75
5656.31
5439.28
5231.11
5032.18
4842.82
4663.3
4493.84
4334.59
4185.64
4047.04
3918.78
3800.79
3692.98
3595.2
3507.25
3428.92
3359.94
3300.02
3248.87
3206.15
3171.5
3144.57
3124.99
3112.36
3106.3
3106.42
3112.33
3123.63
3139.94
3160.87
3186.04
3215.08
3247.62
3283.3
3321.78
3362.7
3405.75
3450.59
3496.92
3544.42
3592.81
3641.8
3691.11
3740.48
3789.65
3838.39
3886.45
3933.61
3979.65
4024.38
4067.61
4109.13
4148.78
4186.37
4221.71
4254.57
4284.62
4311.4
4334.09
4351.25
4360.2
4355.93
4328.97
4261.33
4118.94
3837.05
3292.7
2253.43
434.956
2044.16
15000
15000
14999.9
14999.9
14999.8
14999.8
14999.8
14999.8
14999.8
14999.8
14999.9
14999.9
14999.9
14999.9
15000
15000
15000
15000
15000
15000
15000
15000
15000
15000
15000
15000
15000
15000
15000
15000
14999.9
14999.9
14999.9
14999.9
14999.8
14999.8
14999.7
14999.7
14999.6
14999.4
14999.3
14999.1
14998.9
14998.6
14998.3
14997.8
14997.3
14996.7
14995.9
14995
14993.9
14992.6
14991
14989.1
14986.9
14984.2
14981.1
14977.3
14973
14967.9
14961.9
14955
14947
14937.7
14927
14914.7
14900.7
14884.7
14866.4
14845.7
14822.3
14795.9
14766.3
14733
14695.9
14654.6
14608.6
14557.8
14501.7
14440
14372.2
14298.2
14217.4
14129.6
14034.3
13931.4
13820.5
13701.4
13573.7
13437.4
13292.3
13138.1
12974.9
12802.7
12621.4
12431.2
12232.2
12024.6
11808.6
11584.7
11353.1
11114.4
10868.9
10617.4
10360.3
10098.4
9832.28
9562.75
9290.55
9016.48
8741.35
8465.98
8191.21
7917.86
7646.78
7378.76
7114.59
6855.06
6600.88
6352.75
6111.33
5877.22
5650.99
5433.12
5224.08
5024.26
4833.97
4653.5
4483.07
4322.81
4172.85
4033.22
3903.92
3784.88
3676.01
3577.16
3488.15
3408.75
3338.71
3277.74
3225.55
3181.79
3146.13
3118.2
3097.64
3084.06
3077.07
3076.29
3081.33
3091.79
3107.3
3127.46
3151.9
3180.25
3212.14
3247.22
3285.14
3325.56
3368.14
3412.56
3458.52
3505.7
3553.82
3602.58
3651.72
3700.96
3750.06
3798.76
3846.83
3894.04
3940.19
3985.05
4028.45
4070.18
4110.08
4147.94
4183.58
4216.76
4247.17
4274.32
4297.42
4315.02
4324.47
4320.78
4294.54
4227.87
4086.82
3806.73
3264.05
2222.11
429.283
2038.89
15000
14999.9
14999.8
14999.6
14999.5
14999.5
14999.5
14999.5
14999.5
14999.6
14999.7
14999.8
14999.8
14999.9
14999.9
14999.9
15000
15000
15000
15000
15000
15000
15000
15000
15000
15000
15000
15000
15000
15000
14999.9
14999.9
14999.9
14999.9
14999.8
14999.8
14999.7
14999.7
14999.6
14999.4
14999.3
14999.1
14998.9
14998.6
14998.3
14997.8
14997.3
14996.7
14996
14995
14993.9
14992.6
14991
14989.2
14986.9
14984.2
14981.1
14977.4
14973
14968
14962
14955.1
14947.1
14937.9
14927.2
14915
14900.9
14884.9
14866.7
14846.1
14822.7
14796.4
14766.8
14733.6
14696.6
14655.3
14609.4
14558.7
14502.7
14441.1
14373.4
14299.5
14218.8
14131.1
14036
13933.2
13822.5
13703.5
13576
13439.8
13294.7
13140.7
12977.7
12805.5
12624.4
12434.3
12235.3
12027.8
11811.9
11588
11356.4
11117.7
10872.2
10620.6
10363.4
10101.4
9835.12
9565.39
9292.95
9018.6
8743.14
8467.41
8192.23
7918.44
7646.85
7378.29
7113.54
6853.37
6598.52
6349.67
6107.49
5872.59
5645.51
5426.78
5216.82
5016.05
4824.79
4643.32
4471.86
4310.56
4159.52
4018.8
3888.4
3768.25
3658.26
3558.28
3468.14
3387.61
3316.45
3254.36
3201.06
3156.21
3119.47
3090.48
3068.88
3054.28
3046.3
3044.56
3048.67
3058.24
3072.88
3092.22
3115.88
3143.48
3174.68
3209.1
3246.42
3286.27
3328.35
3372.31
3417.86
3464.69
3512.5
3561.02
3609.95
3659.05
3708.04
3756.69
3804.76
3852.02
3898.25
3943.25
3986.82
4028.77
4068.9
4107.04
4142.99
4176.51
4207.28
4234.82
4258.34
4276.4
4286.36
4283.26
4257.76
4192.06
4052.42
3774.72
3237.78
2216.03
425.595
2020.43
15000
14999.7
14999.3
14999
14998.8
14998.7
14998.7
14998.8
14999
14999.1
14999.3
14999.5
14999.6
14999.7
14999.8
14999.9
14999.9
14999.9
15000
15000
15000
15000
15000
15000
15000
15000
15000
15000
15000
15000
14999.9
14999.9
14999.9
14999.9
14999.8
14999.8
14999.7
14999.7
14999.6
14999.4
14999.3
14999.1
14998.9
14998.6
14998.3
14997.9
14997.3
14996.7
14996
14995.1
14994
14992.6
14991.1
14989.2
14986.9
14984.3
14981.2
14977.5
14973.1
14968.1
14962.1
14955.2
14947.3
14938
14927.4
14915.2
14901.2
14885.2
14867.1
14846.5
14823.2
14796.9
14767.3
14734.2
14697.2
14656.1
14610.3
14559.7
14503.8
14442.2
14374.7
14300.9
14220.3
14132.8
14037.8
13935.2
13824.5
13705.7
13578.3
13442.3
13297.4
13143.5
12980.6
12808.6
12627.5
12437.5
12238.7
12031.2
11815.4
11591.5
11360
11121.2
10875.7
10624.1
10366.8
10104.6
9838.19
9568.25
9295.57
9020.93
8745.14
8469.03
8193.43
7919.17
7647.07
7377.94
7112.59
6851.76
6596.2
6346.61
6103.64
5867.9
5639.95
5420.3
5209.4
5007.64
4815.36
4632.84
4460.3
4297.9
4145.75
4003.89
3872.33
3751.01
3639.85
3538.69
3447.36
3365.65
3293.3
3230.04
3175.57
3129.57
3091.69
3061.58
3038.88
3023.2
3014.18
3011.42
3014.54
3023.15
3036.88
3055.34
3078.16
3104.97
3135.42
3169.15
3205.81
3245.06
3286.59
3330.06
3375.16
3421.6
3469.08
3517.31
3566.02
3614.94
3663.81
3712.39
3760.44
3807.73
3854.04
3899.16
3942.9
3985.05
4025.43
4063.85
4100.11
4133.97
4165.11
4193.05
4217
4235.53
4246.01
4243.53
4218.77
4154.06
4015.79
3739.91
3203.99
2171.46
416.364
2008.17
15000
14999
14997.9
14997.1
14996.8
14996.8
14997
14997.3
14997.8
14998.2
14998.6
14999
14999.3
14999.5
14999.6
14999.8
14999.9
14999.9
14999.9
15000
15000
15000
15000
15000
15000
15000
15000
15000
15000
15000
14999.9
14999.9
14999.9
14999.9
14999.8
14999.8
14999.7
14999.7
14999.6
14999.4
14999.3
14999.1
14998.9
14998.6
14998.3
14997.9
14997.4
14996.7
14996
14995.1
14994
14992.7
14991.1
14989.2
14987
14984.3
14981.2
14977.5
14973.2
14968.1
14962.2
14955.4
14947.4
14938.2
14927.6
14915.4
14901.5
14885.5
14867.4
14846.9
14823.6
14797.4
14767.9
14734.9
14698
14656.9
14611.2
14560.7
14504.9
14443.5
14376.1
14302.3
14221.9
14134.5
14039.7
13937.2
13826.7
13708
13580.8
13444.9
13300.2
13146.5
12983.7
12811.8
12630.9
12441
12242.3
12034.9
11819.1
11595.3
11363.8
11125
10879.5
10627.8
10370.4
10108.1
9841.49
9571.34
9298.41
9023.47
8747.35
8470.85
8194.81
7920.07
7647.44
7377.73
7111.75
6850.25
6593.96
6343.6
6099.81
5863.21
5634.35
5413.76
5201.87
4999.09
4805.76
4622.15
4448.49
4284.95
4131.63
3988.59
3855.83
3733.3
3620.9
3518.51
3425.95
3343
3269.42
3204.93
3149.24
3102.03
3062.96
3031.67
3007.82
2991.01
2980.88
2977.05
2979.12
2986.73
2999.49
3017.02
3038.96
3064.93
3094.58
3127.56
3163.52
3202.14
3243.07
3286
3330.62
3376.63
3423.74
3471.66
3520.11
3568.83
3617.56
3666.05
3714.06
3761.36
3807.74
3852.97
3896.86
3939.21
3979.83
4018.53
4055.1
4089.3
4120.82
4149.17
4173.55
4192.56
4203.58
4201.72
4177.73
4114.03
3977.19
3703.48
3171.23
2144.49
412.232
2023.2
15000
14997
14994
14992.3
14992
14992.6
14993.4
14994.5
14995.5
14996.5
14997.3
14998.1
14998.6
14999.1
14999.4
14999.6
14999.7
14999.8
14999.9
14999.9
15000
15000
15000
15000
15000
15000
15000
15000
15000
15000
14999.9
14999.9
14999.9
14999.9
14999.8
14999.8
14999.7
14999.7
14999.6
14999.4
14999.3
14999.1
14998.9
14998.6
14998.3
14997.9
14997.4
14996.7
14996
14995.1
14994
14992.7
14991.1
14989.3
14987
14984.4
14981.3
14977.6
14973.3
14968.2
14962.4
14955.5
14947.6
14938.4
14927.8
14915.7
14901.8
14885.9
14867.8
14847.3
14824.1
14797.9
14768.5
14735.6
14698.8
14657.7
14612.2
14561.7
14506
14444.7
14377.5
14303.9
14223.6
14136.3
14041.7
13939.3
13829
13710.5
13583.4
13447.7
13303.1
13149.6
12986.9
12815.2
12634.4
12444.7
12246
12038.8
11823.1
11599.3
11367.8
11129.1
10883.5
10631.7
10374.2
10111.8
9845.02
9574.66
9301.47
9026.24
8749.76
8472.87
8196.39
7921.15
7647.98
7377.68
7111.05
6848.85
6591.83
6340.67
6096.04
5858.55
5628.77
5407.2
5194.3
4990.47
4796.04
4611.32
4436.51
4271.79
4117.27
3973
3839
3715.21
3601.55
3497.88
3404.04
3319.81
3244.94
3179.18
3122.22
3073.75
3033.44
3000.93
2975.87
2957.89
2946.6
2941.65
2942.63
2949.18
2960.92
2977.48
2998.48
3023.56
3052.37
3084.56
3119.78
3157.7
3198
3240.36
3284.46
3330.01
3376.71
3424.28
3472.44
3520.93
3569.49
3617.87
3665.82
3713.12
3759.54
3804.86
3848.9
3891.44
3932.29
3971.25
4008.13
4042.68
4074.57
4103.33
4128.16
4147.65
4159.22
4158
4134.81
4072.23
3937.08
3666.3
3140.08
2134.35
411.531
2052.83
15000
14991.8
14984.2
14980.9
14981.5
14984
14986.8
14989.4
14991.7
14993.6
14995.3
14996.6
14997.6
14998.4
14998.9
14999.3
14999.6
14999.7
14999.8
14999.9
14999.9
15000
15000
15000
15000
15000
15000
15000
15000
15000
14999.9
14999.9
14999.9
14999.9
14999.8
14999.8
14999.7
14999.7
14999.6
14999.5
14999.3
14999.1
14998.9
14998.6
14998.3
14997.9
14997.4
14996.8
14996
14995.1
14994
14992.7
14991.2
14989.3
14987.1
14984.4
14981.3
14977.7
14973.4
14968.4
14962.5
14955.7
14947.7
14938.6
14928
14915.9
14902.1
14886.2
14868.2
14847.7
14824.6
14798.5
14769.2
14736.3
14699.6
14658.6
14613.2
14562.9
14507.3
14446.1
14379
14305.5
14225.4
14138.3
14043.7
13941.6
13831.4
13713
13586.2
13450.6
13306.2
13152.8
12990.3
12818.8
12638.1
12448.5
12250
12042.8
11827.2
11603.5
11372
11133.3
10887.7
10635.8
10378.3
10115.7
9848.78
9578.21
9304.76
9029.22
8752.4
8475.11
8198.18
7922.44
7648.71
7377.81
7110.52
6847.62
6589.83
6337.86
6092.38
5853.98
5623.25
5400.68
5186.74
4981.83
4786.3
4600.42
4424.44
4258.51
4102.75
3957.23
3821.95
3696.87
3581.91
3476.93
3381.76
3296.21
3220.02
3152.94
3094.67
3044.91
3003.31
2969.53
2943.22
2924.01
2911.53
2905.4
2905.25
2910.7
2921.38
2936.91
2956.93
2981.08
3009
3040.35
3074.79
3111.98
3151.61
3193.34
3236.89
3281.94
3328.2
3375.39
3423.23
3471.46
3519.82
3568.06
3615.92
3663.19
3709.64
3755.04
3799.2
3841.92
3882.99
3922.22
3959.4
3994.28
4026.54
4055.71
4080.98
4100.97
4113.09
4112.53
4090.19
4028.83
3895.7
3628.71
3110.53
2121.62
412.237
2080.74
15000
14981.2
14964.7
14958.7
14962
14969
14975.9
14981.6
14986
14989.6
14992.4
14994.6
14996.3
14997.5
14998.4
14998.9
14999.3
14999.6
14999.8
14999.9
14999.9
15000
15000
15000
15000
15000
15000
15000
15000
15000
14999.9
14999.9
14999.9
14999.9
14999.8
14999.8
14999.7
14999.7
14999.6
14999.5
14999.3
14999.1
14998.9
14998.6
14998.3
14997.9
14997.4
14996.8
14996
14995.1
14994
14992.7
14991.2
14989.3
14987.1
14984.5
14981.4
14977.8
14973.5
14968.5
14962.6
14955.8
14947.9
14938.8
14928.3
14916.2
14902.4
14886.6
14868.6
14848.2
14825.1
14799.1
14769.9
14737.1
14700.4
14659.6
14614.2
14564
14508.6
14447.5
14380.5
14307.2
14227.3
14140.3
14045.9
13943.9
13833.9
13715.7
13589
13453.7
13309.4
13156.2
12993.9
12822.5
12642
12452.5
12254.1
12047.1
11831.5
11607.9
11376.5
11137.7
10892.1
10640.2
10382.6
10119.9
9852.76
9581.97
9308.27
9032.42
8755.25
8477.55
8200.17
7923.92
7649.64
7378.12
7110.17
6846.55
6587.99
6335.2
6088.85
5849.53
5617.83
5394.25
5179.25
4973.25
4776.58
4589.54
4412.35
4245.19
4088.17
3941.37
3804.78
3678.39
3562.09
3455.76
3359.25
3272.34
3194.8
3126.36
3066.75
3015.64
2972.72
2937.64
2910.04
2889.57
2875.84
2868.51
2867.18
2871.48
2881.05
2895.52
2914.52
2937.69
2964.68
2995.16
3028.77
3065.19
3104.1
3145.18
3188.13
3232.64
3278.43
3325.21
3372.7
3420.64
3468.76
3516.83
3564.58
3611.8
3658.25
3703.71
3747.98
3790.85
3832.13
3871.6
3909.07
3944.28
3976.91
4006.48
4032.2
4052.67
4065.35
4065.47
4044.02
3983.93
3852.86
3589.44
3077.21
2094.99
409.853
2103.97
15000
14966.6
14937.8
14928.4
14935.8
14949.5
14962.2
14971.9
14979.2
14984.7
14989
14992.2
14994.7
14996.4
14997.7
14998.5
14999.1
14999.4
14999.7
14999.8
14999.9
14999.9
15000
15000
15000
15000
15000
15000
15000
15000
14999.9
14999.9
14999.9
14999.9
14999.8
14999.8
14999.7
14999.7
14999.6
14999.5
14999.3
14999.1
14998.9
14998.6
14998.3
14997.9
14997.4
14996.8
14996
14995.1
14994.1
14992.8
14991.2
14989.4
14987.2
14984.6
14981.5
14977.8
14973.6
14968.6
14962.8
14956
14948.1
14939
14928.5
14916.5
14902.7
14887
14869
14848.7
14825.7
14799.7
14770.6
14737.9
14701.3
14660.6
14615.3
14565.2
14509.9
14449
14382.2
14309
14229.2
14142.4
14048.2
13946.4
13836.6
13718.5
13592
13456.8
13312.8
13159.7
12997.6
12826.4
12646
12456.7
12258.4
12051.5
11836
11612.5
11381.1
11142.4
10896.7
10644.8
10387.1
10124.2
9856.95
9585.96
9312
9035.85
8758.32
8480.22
8202.38
7925.62
7650.77
7378.64
7110.01
6845.67
6586.33
6332.72
6085.48
5845.23
5612.55
5387.95
5171.89
4964.77
4766.96
4578.73
4400.32
4231.9
4073.61
3925.5
3787.6
3659.86
3542.2
3434.51
3336.61
3248.32
3169.4
3099.58
3038.59
2986.12
2941.84
2905.42
2876.5
2854.73
2839.73
2831.15
2828.6
2831.72
2840.15
2853.51
2871.45
2893.6
2919.63
2949.19
2981.94
3017.55
3055.71
3096.09
3138.41
3182.34
3227.62
3273.94
3321.05
3368.66
3416.53
3464.39
3512.01
3559.15
3605.57
3651.07
3695.42
3738.43
3779.89
3819.6
3857.34
3892.87
3925.85
3955.82
3981.97
4002.93
4016.18
4016.98
3996.43
3937.64
3808.58
3548.36
3040.94
2062.86
407.434
2148.86
15000
14957.7
14921
14909
14918.2
14935.4
14951.5
14963.8
14973.1
14980.2
14985.7
14989.9
14993.1
14995.4
14997
14998.1
14998.8
14999.3
14999.6
14999.7
14999.8
14999.9
14999.9
15000
15000
15000
15000
15000
15000
15000
14999.9
14999.9
14999.9
14999.9
14999.8
14999.8
14999.7
14999.7
14999.6
14999.5
14999.3
14999.1
14998.9
14998.6
14998.3
14997.9
14997.4
14996.8
14996.1
14995.2