<?xml version="1.0"?>
<VTKFile type="PolyData" version="0.1" byte_order="LittleEndian">
  <PolyData>
    <Piece NumberOfPoints="50000" NumberOfVerts="50000" NumberOfLines="0" NumberOfStrips="0" NumberOfPolys="0">
      <Points>
        <DataArray type="Float32" NumberOfComponents="3" format="ascii">
0.0545695 0.00200815 0
-0.0500295 0.00115022 0
0.0524741 0.000474649 0
0.0549388 0.000557982 0
-0.0431436 0.00161849 0
-0.0360201 0.00107783 0
0.0181291 -0.00255507 0
-0.0450961 0.000746319 0
0.0162263 -0.00183719 0
-0.00257658 0.00194696 0
0.0409853 -0.000853331 0
0.0527474 0.00191747 0
-0.028763 0.00172812 0
-0.019735 -0.0023819 0
-0.0545779 0.00106839 0
0.0421315 0.00243715 0
-0.0068131 0.000520432 0
0.0543374 0.00105514 0
0.020948 0.00100114 0
-0.0499699 0.00126812 0
-0.0525785 0.00149557 0
0.0468736 0.0017131 0
-0.0516291 0.00111425 0
0.0532872 0.000843655 0
0.0337963 -0.000868961 0
0.0391839 0.00252851 0
-0.0507808 -0.000214053 0
0.0546911 0.000394215 0
-0.0358346 0.00388658 0
-0.054121 0.00196841 0
-0.0401844 0.00239536 0
-0.0368904 -0.00137724 0
0.0542646 0.00096072 0
0.0543198 0.000691517 0
0.010855 0.00148665 0
0.0553564 0.000623357 0
0.017196 0.00100898 0
-0.053876 0.00108805 0
-0.0496749 8.58461e-05 0
-0.055419 0.000443338 0
0.0394757 0.00255952 0
0.0419353 0.00163548 0
-0.0514458 0.000433956 0
0.0539258 0.000947798 0
0.0554673 0.00101306 0
-0.0527759 0.00192409 0
0.0532359 0.00152803 0
0.027171 -0.00115787 0
0.0523479 0.000887055 0
0.0536387 0.00087114 0
0.0223412 0.00363609 0
-0.0519364 0.000613478 0
-0.0354224 0.00204749 0
0.0530332 0.00124724 0
-0.0509742 0.00109448 0
-0.0541856 0.00111812 0
0.0545403 0.000684234 0
0.0220503 0.00234727 0
0.0404641 0.00182806 0
0.0562238 0.000201134 0
0.0455911 0.00146079 0
0.0551945 0.00122557 0
0.012423 -0.00336315 0
0.0560639 0.000609211 0
-0.0167358 0.00303305 0
-0.0509227 0.000958101 0
0.0533398 0.000722012 0
0.054548 0.000748577 0
0.0563058 0.00137693 0
0.0391998 0.000956575 0
-0.0512666 0.00122129 0
0.0534737 0.00136389 0
0.0298672 0.00104946 0
0.0297038 0.00174304 0
0.0255593 0.00150424 0
-0.0523459 0.000425254 0
0.045979 0.0024755 0
-0.0493146 0.00136945 0
0.0408131 0.00173533 0
-0.0540347 0.00100493 0
-0.0259953 -0.00354682 0
-0.0530813 0.00136592 0
0.0506571 0.00155397 0
-0.0517532 0.000857105 0
0.0561563 0.000230591 0
-0.0515816 0.0012335 0
0.0561673 0.0002378 0
-0.0224751 -0.000306997 0
-0.0215952 0.00381339 0
-0.0524272 -0.000196795 0
0.0531074 0.00177001 0
-0.0512192 0.000685866 0
0.0529157 0.000605257 0
-0.0343456 0.00337775 0
-0.00432842 -0.00197382 0
-0.0456557 0.00149794 0
0.0532735 0.00204896 0
-0.0525512 0.00122113 0
-0.0555311 0.00175147 0
-0.0547373 0.000659715 0
-0.045511 -0.000194788 0
-0.0514599 7.61845e-06 0
0.0563668 0.000773289 0
-0.0211381 -0.00186388 0
0.0567621 0.000786888 0
0.046025 0.00249862 0
0.0349849 0.00179228 0
0.00326678 0.00181242 0
0.0519275 0.00143907 0
-0.0521931 0.000139578 0
-0.0383229 0.00338388 0
-0.0526921 0.00120509 0
-0.0444488 0.0021931 0
29.094 42.0858 0
0.0356082 0.00181734 0
-0.0518096 0.00126557 0
-0.0538023 0.00136628 0
0.728456 0.996256 0
-0.0524841 0.000988784 0
-0.00168611 -0.000246182 0
0.0547141 0.000682899 0
-0.0507279 0.000246989 0
0.0370961 0.000415598 0
-0.0478901 0.00177953 0
0.053518 0.000764731 0
0.0521198 0.000734981 0
0.0172006 0.0039195 0
0.054659 0.00143318 0
-0.0461226 -0.000104742 0
0.0414119 0.000721969 0
0.0553392 0.000448565 0
0.0547891 0.000804005 0
-0.055098 0.00088892 0
-0.0458029 0.00133173 0
0.056341 0.000635993 0
0.0535972 0.000735386 0
0.0514338 0.00048047 0
-0.00745772 0.00122791 0
0.0427043 -0.00100936 0
0.0416827 -0.000719124 0
0.042688 -0.00104222 0
0.0505885 0.00210808 0
0.0553312 0.000424333 0
-0.0115484 -0.000990624 0
-0.0535931 0.00166409 0
0.036222 -0.00208088 0
-0.0334924 0.00342537 0
-0.0527756 0.00104747 0
-0.0366834 -0.00175782 0
-0.0529968 0.00126703 0
0.0414608 0.00181254 0
0.0532704 0.00117764 0
-0.015247 -0.00071787 0
0.0430287 -0.0005114 0
0.0427326 0.00194269 0
0.0529751 0.0014068 0
0.0360149 -0.000430926 0
-0.0520545 0.00114334 0
-0.0216806 3.30788e-05 0
0.0552129 0.000823482 0
0.0369045 0.000626578 0
-0.0473175 0.000363229 0
-0.0511367 0.0011085 0
-0.0532246 0.00111314 0
-0.0129533 0.00211974 0
0.0423268 1.28015e-05 0
0.0478136 0.000109444 0
0.0482775 0.0013278 0
0.0411851 0.0019529 0
-0.021093 0.00088883 0
0.0567394 0.000222809 0
-0.0509276 0.00119034 0
-0.0113091 4.52704e-05 0
0.0551251 0.00146937 0
-0.0088375 0.000371579 0
-0.0403949 0.00286381 0
-0.0510725 0.00110617 0
-0.0301313 -0.000635405 0
-0.0519136 0.000451934 0
-0.052212 -0.000124478 0
0.0526695 0.000852176 0
-0.0527077 0.00161491 0
-0.0518702 0.00148544 0
0.0545372 0.00159438 0
0.0529584 0.000738571 0
0.0405403 -0.00142332 0
0.0568608 0.000415768 0
0.0560629 0.000919672 0
0.0546228 0.000379819 0
0.00649803 0.0045661 0
0.0554998 0.000383073 0
0.0447093 -0.000359866 0
-0.0340302 -0.00157272 0
0.0496509 0.00169295 0
-0.0477869 0.00163396 0
0.0527367 0.00110298 0
-0.0423091 0.00234327 0
-0.0454147 0.00149333 0
-0.0510804 0.0012956 0
0.0535372 0.00154551 0
-0.0334411 0.00328391 0
0.0558285 0.00121447 0
0.0484991 0.000123309 0
-0.00995592 -0.000107697 0
0.0567871 0.000209184 0
-0.0507503 -0.000322757 0
0.00752346 0.00671842 0
0.0228426 -4.17902e-05 0
-0.0452501 0.00220801 0
-0.0314165 -0.00052222 0
0.0521879 0.000945508 0
-0.0214254 -0.00190786 0
0.0489206 0.000362148 0
-0.0437038 0.00225033 0
-0.0293485 -0.00125349 0
-0.0531559 0.00157139 0
-0.0524406 0.00178537 0
0.0540901 0.000831678 0
-0.0534964 0.000600169 0
-0.00550962 0.00353666 0
-0.0408584 0.00234324 0
-0.053614 0.00125005 0
-0.0492876 -4.35253e-05 0
0.0563207 0.000475211 0
0.0198623 0.00401443 0
-0.0511303 0.00117266 0
0.0563742 0.00100377 0
0.0544827 0.000759582 0
-0.0449353 0.00208339 0
-0.053778 0.000670157 0
-0.0529601 0.000231362 0
0.0531848 0.00145032 0
0.0272947 0.00389306 0
-0.0073245 0.00276321 0
-0.0545703 0.00135483 0
-0.0466266 0.00156977 0
0.041143 -0.00145762 0
-0.0407162 0.000196671 0
-0.0519755 0.00122081 0
0.0330503 0.000451553 0
0.055399 0.000849141 0
-0.0480564 -0.000171262 0
-0.0527757 0.0012128 0
-0.0295026 -0.00102668 0
0.0272764 0.00172862 0
0.0482455 0.00139119 0
-0.0493525 0.0017198 0
0.054493 0.000757621 0
0.0556571 0.0012014 0
0.0319586 0.00247491 0
0.0334703 0.00140707 0
-0.0493212 0.00145623 0
0.0523776 0.000459068 0
-0.0225947 -0.000418049 0
-0.0475566 0.0018668 0
0.0526248 0.00081932 0
-0.0460817 0.00184122 0
0.0460891 0.00201543 0
0.0201567 0.00386293 0
0.0294616 0.000903312 0
0.0557599 0.000982063 0
-0.0493057 0.00143333 0
0.0106903 -0.000248168 0
0.00574191 -0.000987205 0
-0.0348375 0.00124864 0
-0.052208 0.000897652 0
-0.0511577 0.00116365 0
-0.0511237 0.00056106 0
0.0540171 0.000730872 0
0.053378 0.00074692 0
0.0550467 0.000731295 0
-0.052778 0.000358742 0
0.03536 0.00123964 0
0.00326049 0.00225253 0
-0.0548313 0.00143419 0
-0.0532102 0.00107682 0
0.0524317 0.000809401 0
-0.0508689 0.00117609 0
0.0515676 0.00170269 0
-0.0518451 0.000562287 0
-0.049825 0.000756761 0
-0.0221595 -0.00216441 0
-0.052565 0.0010924 0
0.0510472 0.000558395 0
-0.0441274 0.00220911 0
-0.049823 0.000362129 0
-0.0191097 0.00340212 0
-0.0525407 0.00118978 0
-0.0531379 0.00127314 0
0.0461226 0.00043508 0
-0.0180274 0.00169836 0
0.0539059 0.000738343 0
0.0550489 0.000479754 0
0.0348583 0.00265466 0
0.0555824 0.00129251 0
0.0533385 0.00170714 0
0.0553084 0.00141029 0
-0.0350255 0.00384223 0
-0.0492202 0.00103646 0
-0.0544397 0.000903409 0
0.0568736 0.00097763 0
-0.00658208 0.00178319 0
0.0536484 0.000628822 0
0.0525889 0.00131307 0
0.0551601 0.000759733 0
0.00994088 0.00241068 0
-0.0265985 0.00405618 0
0.0462555 0.00154734 0
-0.00549642 0.000861299 0
-0.0250427 0.00203097 0
-0.0424618 0.00231618 0
0.0541408 0.00178033 0
-0.0373989 0.00270886 0
0.0496189 0.000134501 0
0.0410359 0.000214974 0
-0.0545443 0.00159649 0
0.0433702 -0.00109087 0
0.0564718 0.000179329 0
0.0504359 0.000447863 0
0.0542699 0.00186891 0
-0.053192 0.00147792 0
-0.0108591 0.00277612 0
0.0548089 0.00112386 0
0.0547663 0.000736167 0
0.0251335 0.00404334 0
-0.0509427 0.00069423 0
-0.0495555 0.0014518 0
0.0562689 0.000925252 0
-0.050432 0.000390538 0
0.0546905 0.00120963 0
0.0548788 0.000541957 0
0.0261291 -0.00220659 0
0.0522286 0.00130982 0
-0.0521608 0.00120983 0
-0.0441668 0.000715333 0
-0.0293913 0.000469458 0
0.00497373 -0.00016871 0
0.00698944 -0.00286957 0
-0.047777 0.00122844 0
0.0243161 -0.00253554 0
-0.00460459 0.0059116 0
-0.0540464 0.00156809 0
-0.0379155 0.00259132 0
-0.0526195 0.00135915 0
-0.0209093 -0.000956735 0
0.0550746 0.00179838 0
-0.0367113 0.00280939 0
-0.0535239 0.000745684 0
-4.42092 18.2904 0
0.0548149 0.000181677 0
0.054472 0.000716819 0
-0.0427753 0.00265699 0
0.0532739 0.00127043 0
0.0503322 0.000719125 0
-47.167 -84.3515 0
0.0169501 0.00272985 0
-0.0528882 0.00125466 0
-0.0432961 0.000474299 0
0.0538821 0.00132358 0
0.385059 -0.790493 0
0.050892 0.0015009 0
-0.0518885 -6.04181e-05 0
-0.0323567 0.000837252 0
-0.0527001 0.000310122 0
-0.0535575 0.00165579 0
0.0535904 0.000720376 0
-0.0539271 0.000596099 0
-0.046612 0.00200274 0
0.0417642 0.00248498 0
-0.0508965 0.000788279 0
-0.041983 0.00266006 0
-0.0469025 0.00187707 0
0.0539647 0.00140685 0
0.0487415 -7.46366e-05 0
-0.0306471 0.00329221 0
0.0557857 0.00059102 0
-0.0530088 7.35937e-07 0
-0.0485293 0.000321444 0
-0.0534986 0.000931185 0
0.00530439 -0.0030842 0
-0.0516009 3.91315e-05 0
0.0537793 0.00144429 0
-0.0521394 0.00127207 0
-0.0521996 0.00102812 0
-0.0120016 0.00278269 0
0.034832 0.00262636 0
-0.0159715 0.00550475 0
0.0118667 0.00350093 0
-0.0528792 0.00128828 0
-0.00873164 0.00129432 0
-0.0531055 0.000631796 0
-0.0532428 0.00149699 0
0.0523428 0.000105271 0
0.045648 0.00207493 0
-0.0494161 0.00164002 0
0.0489913 0.00153306 0
0.0481361 0.00102678 0
-0.0506559 0.00118923 0
-0.0272801 -0.000116524 0
0.0379127 -0.00141238 0
-0.0510067 0.000870588 0
0.0460597 -0.000326052 0
0.0215972 0.00020552 0
-0.0518753 0.000653939 0
0.0501024 0.000771193 0
0.0526784 0.000547314 0
0.0538799 0.000253925 0
[...]
      <PointData Scalars="T">
        <DataArray type="Float32" Name="T" format="ascii" NumberOfComponents="1">
315.455
313.066
300.708
300.652
320.669
314.155
319.16
315.283
319.16
337.169
319.16
315.455
322.981
332.522
314.26
315.455
317.574
300.536
300.403
313.113
316.134
301.368
313.252
300.791
319.16
315.455
332.522
300.912
337.169
337.169
337.169
332.522
300.414
300.474
300.839
300.544
300.403
313.911
321.539
317.954
315.455
301.119
318.106
300.41
300.404
337.169
301.09
319.16
300.411
300.414
315.455
316.747
337.169
300.616
313.613
313.252
300.484
315.455
301.676
301.451
300.754
300.642
319.16
300.547
337.169
315.687
300.452
300.446
300.799
300.412
313.089
300.857
300.612
301.497
300.969
318.309
315.455
313.796
301.454
314.581
332.522
313.796
301.249
314.036
301.3
313.095
301.3
332.522
337.169
332.522
301.605
315.809
300.547
337.169
332.522
316.134
315.455
313.089
322.848
316.139
332.522
332.522
300.439
332.522
300.437
315.455
301.645
301.669
300.668
322.143
337.169
313.074
337.169
315.455
301.669
313.113
313.796
315.455
314.801
332.522
300.484
322.547
300.951
322.865
300.441
300.449
315.455
300.668
332.522
300.452
300.874
300.436
314.026
313.731
300.538
300.449
300.691
313.089
319.16
319.16
319.16
315.455
300.948
332.522
321.954
319.16
337.169
314.135
332.522
313.113
301.669
300.475
332.522
319.16
315.455
300.649
319.16
313.098
321.084
300.482
300.544
318.591
313.363
313.252
337.169
303.468
302.336
300.721
315.455
314.026
301.339
313.066
321.158
300.754
318.367
337.169
313.363
332.522
317.836
332.522
300.819
320.669
315.856
301.325
300.449
319.16
300.951
300.406
300.912
315.455
300.897
319.16
332.522
301.283
321.244
300.482
337.169
316.134
313.317
301.154
337.169
300.623
302.149
332.522
301.451
332.522
315.455
319.16
337.169
332.522
300.41
332.522
300.973
337.169
332.522
319.693
322.973
300.597
316.893
337.169
337.169
313.103
332.522
300.708
315.455
313.052
300.403
300.444
337.169
315.891
322.548
300.722
315.455
337.169
313.667
319.322
319.16
322.823
313.089
300.804
300.791
332.522
313.082
332.522
301.415
300.687
322.877
300.444
300.582
315.455
300.649
315.12
300.804
332.522
326.599
300.445
324.849
315.455
315.455
300.407
300.414
314.747
319.16
319.16
313.098
314.054
313.053
317.067
300.449
300.446
300.449
318.94
300.638
315.455
314.747
314.155
300.436
313.052
301.318
317.067
315.457
332.522
313.613
300.652
337.169
318.591
337.169
313.058
313.145
300.919
322.448
300.449
300.708
315.455
300.642
301.318
300.641
337.169
314.167
315.294
300.416
322.973
300.544
300.704
300.444
315.455
337.169
301.154
314.264
337.169
337.169
301.625
337.169
302.03
301.389
320.224
319.16
301.692
300.874
301.696
315.601
337.169
300.48
300.449
315.455
315.746
315.12
300.406
318.283
300.582
300.723
319.16
300.683
313.074
315.557
317.8
319.16
319.16
313.089
319.16
337.169
319.322
337.169
313.667
332.522
301.645
337.169
315.283
337.169
301.595
300.457
337.169
300.575
300.457
332.522
315.455
313.103
317.881
300.721
319.16
300.969
332.522
314.265
320.796
321.743
300.452
316.911
337.169
315.455
315.524
337.169
327.803
300.649
319.16
337.169
300.548
332.522
320.423
315.394
319.16
321.084
300.694
313.145
314.424
337.169
315.455
337.169
315.455
313.204
313.317
316.482
316.134
302.336
315.455
321.544
301.116
300.418
313.058
332.522
319.16
314.323
319.16
301.451
316.139
300.439
300.723
301.241
300.51
300.414
301.659
313.098
315.455
322.143
315.455
313.098
321.539
337.169
319.16
313.317
300.452
337.169
315.455
313.089
300.478
300.439
315.455
301.241
313.082
313.252
300.484
337.169
315.455
313.252
300.741
315.687
321.409
313.915
315.12
300.602
300.501
337.169
300.804
314.265
316
332.522
314.599
332.522
315.455
319.16
317.862
300.529
318.94
316.907
300.919
303.335
317.281
314.156
314.264
332.522
300.414
332.522
300.406
337.169
321.084
300.437
301.119
321.402
322.713
337.169
337.169
301.676
314.981
301.389
300.452
300.687
337.169
316.134
313.204
300.597
315.455
314.981
317.574
322.602
313.252
300.536
300.969
300.441
300.403
322.865
301.686
315.455
300.404
313.066
315.455
303.236
315.355
300.546
313.052
314.67
337.169
332.522
315.891
321.98
332.522
322.143
319.16
319.16
319.16
315.455
300.919
301.703
315.455
321.728
315.455
313.2
300.723
315.455
337.169
300.694
314.26
314.697
337.169
315.474
315.455
319.16
301.381
300.464
300.544
319.16
322.877
301.325
300.649
315.474
300.799
313.883
313.095
332.522
300.897
300.521
314.442
337.169
320.423
316.482
332.522
301.605
301.605
300.476
301.193
332.522
314.156
300.792
313.667
300.412
315.455
318.35
313.089
319.16
321.544
300.575
315.455
319.368
301.381
321.084
300.484
315.375
337.169
300.612
319.16
322.762
317.862
314.026
313.098
337.169
301.165
300.897
300.474
300.414
301.579
332.522
315.474
315.558
332.522
313.098
300.721
319.16
337.169
301.247
316.482
300.403
300.668
300.407
313.252
315.455
332.522
314.995
315.455
302.037
332.522
315.455
313.095
319.16
300.772
301.09
300.441
332.522
317.954
315.12
315.294
301.318
318.591
319.16
316.638
332.522
301.69
300.436
318.106
317.574
322.871
337.169
300.521
300.939
337.169
315.611
332.522
315.455
319.16
313.066
337.169
300.557
300.874
315.455
301.368
313.363
332.522
318.283
332.522
332.522
300.648
337.169
301.686
300.582
332.522
337.169
300.436
301.241
332.522
314.462
319.16
332.522
321.402
313.053
300.531
332.522
314.155
315.455
337.169
313.236
319.16
315.455
313.058
315.455
300.804
314.135
301.579
300.449
313.317
337.169
301.339
300.437
300.445
315.455
300.867
315.537
315.809
337.169
315.361
301.122
313.098
322.736
300.414
300.683
313.796
313.613
315.361
300.452
300.792
315.455
315.455
315.856
300.441
300.714
314.374
313.731
300.623
300.457
315.455
315.455
300.529
320.403
301.229
300.616
300.771
313.074
315.455
321.544
319.16
300.642
319.16
300.792
319.16
337.169
300.48
314.74
300.832
313.052
337.169
337.169
301.527
332.522
301.431
313.082
300.436
301.431
332.522
319.16
314.054
316.978
315.524
313.911
337.169
315.12
300.449
300.771
319.16
300.436
301.527
315.687
315.455
313.066
315.283
300.549
300.874
313.066
300.412
314.156
315.455
315.361
322.448
337.169
332.522
316.978
300.412
337.169
315.455
337.169
321.562
314.747
316.978
332.522
300.482
315.455
300.772
337.169
332.522
317.77
314.26
332.522
337.169
317.836
315.455
313.058
332.522
301.595
300.586
300.444
313.363
314.26
318.35
300.741
316.907
300.501
313.204
332.522
316.911
315.455
300.436
315.455
300.482
300.51
322.877
316.134
300.557
337.169
301.737
314.26
300.799
313.252
321.409
300.573
313.095
300.486
314.747
313.617
303.335
300.536
317.067
315.455
319.16
300.501
315.455
337.169
332.522
315.557
301.703
314.26
300.637
315.455
300.549
319.16
315.638
314.156
300.486
316.511
337.169
319.16
300.436
300.602
300.457
314.747
332.522
315.455
314.07
300.474
300.721
313.066
337.169
300.638
314.054
319.16
300.446
313.098
313.089
300.723
300.412
326.599
332.522
332.522
315.455
300.481
314.265
337.169
313.252
314.981
928.204
300.538
337.169
300.497
314.271
300.521
300.436
314.323
300.484
313.911
300.648
300.457
321.244
320.954
300.642
300.948
315.455
301.159
301.193
315.455
313.095
301.318
300.708
315.537
319.16
301.159
313.667
300.791
302.03
301.218
314.747
313.796
332.522
319.16
332.522
300.464
332.522
313.363
337.169
315.455
319.91
315.524
332.522
319.16
315.687
314.156
319.16
300.491
332.522
332.522
301.409
337.169
300.771
302.619
316.482
301.497
332.522
300.48
319.16
315.455
301.527
315.455
315.455
337.169
300.475
300.874
300.474
337.169
300.452
332.522
337.169
318.309
300.874
300.903
313.098
332.522
323.475
319.16
313.731
337.169
300.819
300.446
315.455
300.683
313.095
313.911
300.912
337.169
301.454
337.169
322.736
300.482
318.283
300.745
316.511
317.8
337.169
313.796
322.848
313.883
332.522
321.244
337.169
301.605
314.74
302.527
319.16
319.16
300.771
300.754
337.169
300.445
313.098
315.455
313.082
300.704
300.475
318.084
301.703
337.169
300.549
301.381
319.16
316.893
300.457
322.848
300.416
332.522
320.796
315.455
332.522
313.145
314.666
332.522
303.236
301.676
315.455
315.455
332.522
319.16
316
319.16
300.411
301.724
315.455
300.623
303.016
300.457
332.522
315.455
300.575
316.907
322.696
300.691
314.67
300.41
337.169
322.831
313.098
314.265
332.522
313.066
300.491
332.522
315.455
313.363
301.527
337.169
315.455
337.169
337.169
300.832
301.247
317.77
319.16
315.455
300.414
300.41
332.522
337.169
315.457
315.609
319.16
315.12
300.411
315.361
323.2
300.548
300.547
313.667
315.455
301.3
300.414
319.16
313.103
300.791
301.154
337.169
337.169
337.169
318.122
337.169
319.16
313.066
300.912
332.522
300.48
300.897
315.455
313.074
332.522
332.522
314.888
319.16
301.737
332.522
300.546
300.612
332.522
321.256
300.538
313.103
300.486
319.16
300.839
321.601
337.169
326.599
313.731
301.09
314.801
300.575
314.155
321.954
300.446
300.903
301.737
319.16
300.683
315.457
314.697
321.601
313.052
300.444
300.582
300.839
315.455
315.455
301.381
322.639
314.67
315.12
319.693
315.809
313.058
313.053
300.407
319.16
319.16
300.439
300.521
313.052
319.16
313.317
300.41
317.574
314.888
315.455
313.613
314.374
300.452
315.394
319.16
300.691
319.16
300.544
315.455
300.766
300.948
315.455
317.09
300.418
314.271
301.09
315.455
300.411
316.638
300.912
316.907
315.455
315.455
315.455
315.455
337.169
319.16
322.871
315.455
300.419
319.16
314.801
314.801
314.026
319.16
319.16
332.522
301.368
313.236
300.642
300.452
332.522
314.888
315.687
319.16
301.047
313.204
300.452
337.169
300.623
314.156
313.074
315.294
337.169
319.16
300.874
317.09
315.12
322.865
337.169
301.595
319.91
301.69
314.442
315.455
300.638
337.169
313.098
300.969
323.864
300.436
319.16
319.16
337.169
300.41
319.16
332.522
337.169
319.16
313.731
300.446
337.169
313.089
300.449
332.522
332.522
300.597
300.482
300.721
300.557
315.455
316.139
300.474
315.455
337.169
337.169
319.16
313.098
315.455
300.418
314.036
313.098
301.415
314.995
314.323
300.612
319.16
315.524
314.155
300.474
313.317
314.74
317.016
316.139
337.169
300.691
319.16
337.169
313.317
319.16
332.522
300.772
315.455
315.455
337.169
313.915
300.691
314.264
315.455
314.156
315.455
300.804
313.911
300.51
300.538
321.256
313.058
321.402
318.361
313.066
316.134
313.145
313.731
315.455
300.482
300.951
314.156
319.16
327.803
313.066
300.445
313.058
313.089
300.683
313.066
317.067
300.691
332.522
317.09
315.455
314.462
301.122
300.474
300.521
319.16
316.134
300.616
300.612
313.098
313.089
315.455
323.475
337.169
300.406
300.474
300.439
332.522
300.449
322.871
300.482
300.919
314.424
313.066
313.052
300.557
300.482
337.169
337.169
313.731
332.522
300.475
332.522
319.16
332.522
332.522
300.791
315.455
300.874
332.522
315.455
319.16
315.455
314.036
300.484
314.054
315.524
337.169
313.2
315.474
318.08
318.283
301.247
300.602
332.522
313.667
323.128
319.16
317.176
337.169
313.089
332.522
332.522
319.16
300.912
300.857
313.074
301.283
315.455
300.446
317.8
301.603
300.482
315.455
300.41
301.247
321.244
314.026
315.518
337.169
314.155
300.457
332.522
332.522
315.455
313.667
332.522
337.169
314.036
313.613
313.089
315.558
303.401
332.522
317.574
322.981
332.522
313.113
319.16
322.488
337.169
319.16
300.547
303.335
332.522
332.522
337.169
315.455
313.058
316.638
300.481
337.169
313.089
322.112
300.754
337.169
315.455
315.455
319.16
316.978
301.484
300.486
332.522
315.687
300.714
315.455
332.522
321.244
316.825
300.544
314.07
315.891
337.169
300.903
301.247
319.16
301.696
332.522
337.169
313.058
319.16
301.724
317.176
301.249
300.839
315.457
332.522
317.016
301.218
301.625
301.116
313.363
301.605
315.518
315.455
325.788
313.113
314.167
300.592
300.436
319.16
300.586
316.911
300.804
319.16
314.981
313.066
315.455
300.799
300.414
337.169
319.16
313.058
300.531
300.704
303.378
300.418
315.537
313.095
315.558
301.047
300.951
319.16
300.437
337.169
301.165
313.089
300.476
300.819
315.455
332.522
300.409
313.098
301.165
315.455
300.739
315.537
302.336
301.769
301.603
300.544
300.799
314.581
315.455
300.772
337.169
318.94
315.493
313.883
317.176
337.169
314.981
337.169
300.548
300.446
332.522
315.455
319.897
314.26
313.363
319.16
332.522
332.522
300.638
300.772
301.047
301.659
315.455
314.167
300.582
300.648
300.948
301.047
313.095
300.408
314.801
332.522
332.522
319.16
332.522
337.169
320.224
337.169
337.169
337.169
314.323
337.169
300.623
300.683
300.538
313.2
300.939
313.252
300.531
315.455
313.667
300.612
300.597
315.455
300.687
319.16
313.883
319.16
300.414
337.169
315.455
314.271
301.497
337.169
300.912
300.482
320.403
337.169
332.522
337.169
322.831
315.601
319.16
319.16
319.16
332.522
315.455
337.169
300.444
316.911
315.455
313.052
337.169
332.522
313.098
300.791
301.409
317.09
319.16
300.832
318.309
337.169
300.819
300.648
314.462
300.741
300.641
319.16
300.436
319.16
332.522
337.169
332.522
321.98
315.455
319.16
315.455
300.501
300.548
322.865
315.375
315.283
300.521
300.414
300.441
301.389
313.617
302.03
301.325
300.575
301.047
300.597
315.455
315.601
314.462
337.169
301.415
313.2
322.973
300.436
300.416
300.597
300.403
314.888
301.165
314.462
300.648
301.681
337.169
319.16
332.522
332.522
332.522
300.446
332.522
332.522
314.26
332.522
315.746
313.089
321.158
317.016
314.036
301.339
337.169
314.666
315.455
300.754
319.16
300.449
315.455
313.066
337.169
315.455
332.522
332.522
315.455
313.252
317.881
300.48
301.283
300.464
323.013
313.145
301.844
322.871
337.169
300.557
316.139
300.403
300.414
300.939
300.446
325.788
313.317
337.169
300.586
313.2
323.475
337.169
314.442
318.106
315.361
315.455
332.522
337.169
313.066
301.283
315.12
300.484
316.825
314.026
315.455
313.053
318.94
300.474
300.444
316
315.537
315.294
300.597
314.036
313.052
314.026
332.522
316.511
332.522
332.522
300.867
300.586
332.522
323.864
319.16
300.573
301.389
332.522
300.723
319.16
300.721
300.766
317.176
321.539
337.169
313.098
300.478
313.911
315.455
313.363
332.522
332.522
302.037
300.404
317.8
320.669
300.457
314.265
300.687
319.16
315.455
300.874
319.16
315.455
313.613
318.367
316.747
316.511
300.708
300.445
317.862
300.791
315.687
313.098
337.169
332.522
314.07
300.638
300.51
313.066
332.522
300.491
315.455
313.103
303.401
313.113
300.436
319.16
300.444
337.169
315.455
319.16
300.521
300.754
316
300.403
332.522
321.084
300.538
300.436
316.638
314.155
315.455
300.548
319.16
318.361
332.522
313.052
300.582
300.638
332.522
301.165
300.723
314.995
319.16
315.455
323.864
317.8
315.524
313.667
337.169
314.424
337.169
337.169
300.582
332.522
300.403
318.122
316.978
300.839
314.167
337.169
313.731
332.522
302.149
314.888
332.522
300.475
337.169
315.524
313.074
301.669
300.444
300.602
300.497
332.522
322.762
313.052
315.537
313.613
337.169
332.522
313.052
313.363
319.16
300.839
315.455
300.482
300.414
332.522
315.355
301.605
315.455
317.574
332.522
313.066
319.16
314.167
337.169
323.128
300.549
313.731
301.451
315.455
300.41
319.16
313.082
301.407
316.511
337.169
322.639
315.455
337.169
315.455
300.486
300.48
300.482
337.169
332.522
300.407
300.482
300.486
315.455
315.455
300.457
321.777
300.474
301.603
314.462
314.995
313.074
301.389
300.436
301.527
313.613
314.167
322.981
315.455
313.317
301.116
315.474
300.482
319.16
319.16
300.441
337.169
300.741
332.522
300.481
300.482
301.247
337.169
322.831
332.522
313.204
317.281
320.423
300.476
314.67
315.558
300.708
319.16
300.491
313.089
314.888
322.713
332.522
301.454
337.169
315.557
322.713
300.575
337.169
315.394
300.449
313.074
315.455
332.522
300.531
313.252
332.522
301.681
337.169
319.16
316.379
314.67
319.16
315.455
332.522
313.053
337.169
300.452
337.169
321.777
300.449
315.283
300.766
301.09
315.518
301.681
300.547
319.16
319.16
300.486
316.482
319.16
301.645
314.054
315.455
337.169
322.547
318.591
315.601
321.256
300.51
316.379
301.681
301.142
315.455
319.16
315.455
300.549
319.16
300.839
321.173
300.582
315.455
321.402
300.912
319.16
300.623
300.414
332.522
300.521
300.457
321.402
315.455
318.361
332.522
300.874
313.082
337.169
300.521
337.169
300.529
300.481
315.455
300.444
300.538
319.16
319.16
300.482
300.412
313.095
322.639
315.687
300.573
300.411
337.169
303.335
300.484
315.457
300.739
301.407
301.451
300.474
319.16
313.053
300.648
300.457
314.599
300.939
321.084
301.318
300.444
300.721
337.169
332.522
301.703
313.113
337.169
319.16
300.521
319.16
337.169
315.455
300.637
314.581
313.066
319.16
319.16
300.969
321.98
318.361
761.952
300.449
300.722
302.149
315.746
313.915
301.769
300.409
315.455
300.754
319.16
314.26
315.455
332.522
315.455
314.07
313.796
300.529
300.969
315.361
313.883
301.497
332.522
314.697
314.801
314.374
315.12
313.053
332.522
300.772
319.16
315.537
300.623
315.283
315.455
300.786
322.736
300.446
319.16
337.169
319.16
315.294
314.981
314.747
313.095
300.969
315.455
319.16
332.522
301.844
322.713
300.586
300.723
313.252
317.574
313.074
300.407
300.481
301.283
300.419
332.522
300.723
313.915
300.457
337.169
300.441
313.074
318.364
315.455
319.16
332.522
300.597
316.825
300.592
337.169
321.256
332.522
332.522
302.037
337.169
322.548
315.294
332.522
332.522
300.652
337.169
300.939
300.739
315.455
300.804
315.455
302.455
313.317
332.522
315.294
315.455
315.455
313.066
300.586
300.482
300.446
300.586
316.825
323.864
301.142
301.159
302.228
300.436
314.323
300.418
319.91
313.363
314.599
300.786
337.169
300.418
317.862
300.547
314.156
332.522
300.694
313.667
301.368
319.16
301.605
315.375
315.355
300.481
300.771
319.16
301.692
315.455
315.557
315.455
300.414
337.169
300.441
315.455
319.16
316.482
315.455
315.455
316.482
314.424
314.374
300.411
319.16
313.363
337.169
315.518
317.281
300.452
319.16
322.448
332.522
300.444
332.522
321.001
337.169
300.652
315.455
332.522
314.323
332.522
319.16
319.368
332.522
300.529
300.839
301.431
300.641
314.888
322.762
332.522
332.522
315.455
319.16
300.668
300.437
313.617
313.089
318.858
313.095
332.522
313.058
313.911
300.409
300.529
300.548
319.16
332.522
321.256
313.236
322.871
320.669
319.16
315.294
315.455
315.455
300.546
321.402
332.522
300.464
301.122
300.51
316.379
315.455
313.066
313.317
300.436
300.439
300.549
300.874
301.368
301.676
301.318
300.721
302.03
319.16
313.613
300.548
314.26
315.455
337.169
314.442
314.167
300.531
300.449
315.609
315.455
313.796
316.978
313.052
321.084
319.16
317.176
314.036
300.474
300.414
316.638
314.442
322.253
314.424
301.26
300.691
300.586
315.283
300.41
300.407
319.16
315.394
315.283
300.441
300.475
301.659
300.529
300.444
315.455
317.954
300.449
300.403
300.582
322.448
322.696
313.058
313.617
319.897
319.16
315.558
314.801
337.169
337.169
314.599
300.474
300.411
301.26
313.731
300.452
319.16
319.16
301.692
300.754
313.667
313.082
332.522
300.708
313.911
300.586
332.522
319.16
314.981
314.054
337.169
315.455
332.522
332.522
315.455
318.94
300.486
337.169
300.414
301.249
301.579
315.375
300.867
313.053
322.696
319.16
337.169
300.951
319.16
315.455
301.605
315.455
337.169
300.839
314.054
332.522
300.41
332.522
317.281
314.054
319.16
337.169
314.26
337.169
300.446
319.368
313.095
301.431
300.723
319.16
321.498
313.066
300.404
313.066
316.825
315.455
332.522
313.204
332.522
327.803
316.638
337.169
313.052
300.481
300.683
313.074
332.522
319.16
300.548
332.522
337.169
315.455
300.414
315.455
314.67
337.169
301.527
332.522
313.095
317.574
300.414
319.16
319.16
300.475
315.455
300.638
315.455
302.455
337.169
315.537
314.801
314.036
321.173
316.825
301.625
314.07
300.668
300.409
314.156
300.544
315.455
332.522
321.158
300.481
337.169
337.169
315.455
313.074
314.26
337.169
320.403
322.602
319.322
321.98
316.825
337.169
315.455
332.522
332.522
337.169
321.256
315.455
300.482
300.792
301.669
337.169
320.954
303.291
337.169
337.169
315.355
300.449
301.339
337.169
316.907
315.455
319.16
321.084
326.599
322.648
332.522
319.322
319.16
337.169
317.574
315.455
300.623
317.176
332.522
300.547
300.548
313.052
332.522
313.053
337.169
314.995
319.16
301.737
315.455
315.455
301.381
337.169
319.16
300.948
300.575
314.07
332.522
313.066
318.283
301.696
319.16
300.437
300.452
320.403
337.169
319.693
300.548
337.169
300.416
317.067
300.708
337.169
300.766
300.436
313.103
315.609
314.26
301.245
337.169
321.743
321.158
300.549
313.082
319.16
314.666
315.611
315.455
300.484
322.713
313.052
302.336
301.676
315.455
300.476
300.521
313.095