<?xml version="1.0"?>
<VTKFile type="ImageData" version="0.1" byte_order="LittleEndian">
  <ImageData Origin="0 0 0" Spacing="1e-05 1e-05 1e-05" WholeExtent="0 191 0 191 0 0">
    <Piece Extent="0 191 0 191 0 0">
      <CellData Scalars="T">
        <DataArray type="Float32" Name="T" format="ascii" NumberOfComponents="1">
13984.5
15000
14995.6
14988.1
14976.2
14958.1
14931.6
14894.1
14842.5
14773.3
14682.5
14565.8
14419
14237.7
14017.9
13755.9
13449.2
13095.9
12695.4
12248.7
11758.1
11227.3
10661.5
10067.3
9451.9
8823.5
8190.49
7561.26
6943.82
6345.49
5772.63
5230.46
4722.98
4252.87
3821.61
3429.54
3076.01
2759.58
2478.2
2229.41
2010.53
1818.78
1651.48
1506.05
1380.18
1271.78
1179.04
1100.42
1034.59
980.419
936.914
903.175
878.346
861.569
851.951
848.54
850.307
856.153
864.919
875.41
886.435
896.843
905.572
911.693
914.446
913.275
907.847
898.061
884.043
866.128
844.839
820.845
794.925
767.926
740.721
714.17
689.085
666.201
646.148
629.438
616.444
607.395
602.368
601.296
603.97
610.061
619.139
630.708
644.247
659.249
675.272
691.981
709.182
726.848
745.123
764.312
784.842
807.213
831.927
859.409
889.935
923.559
960.065
998.946
1039.41
1080.44
1120.82
1159.31
1194.7
1225.94
1252.28
1273.31
1289.04
1299.86
1306.56
1310.18
1311.91
1312.96
1314.37
1316.92
1320.98
1326.47
1332.84
1339.14
1344.1
1346.3
1344.32
1336.94
1323.28
1302.95
1276.13
1243.56
1206.56
1166.89
1126.63
1088.05
1053.37
1024.66
1003.61
991.469
988.902
995.987
1012.19
1036.44
1067.17
1102.47
1140.24
1178.29
1214.54
1247.15
1274.61
1295.85
1310.25
1317.65
1318.31
1312.84
1302.11
1287.11
1268.9
1248.49
1226.76
1204.42
1182.01
1159.83
1138.05
1116.66
1095.54
1074.51
1053.37
1031.88
1009.86
987.161
963.69
939.42
914.392
888.724
862.608
836.313
810.184
784.629
760.103
737.072
715.965
697.082
680.463
665.662
651.358
634.606
609.264
562.152
461.993
318.005
14524.8
15000
14995.6
14988.1
14976.2
14958.1
14931.6
14894
14842.4
14773.2
14682.3
14565.6
14418.7
14237.3
14017.3
13755.3
13448.3
13094.8
12694.1
12247.2
11756.3
11225.2
10659.2
10064.6
9448.98
8820.35
8187.15
7557.8
6940.31
6342.02
5769.29
5227.38
4720.24
4250.6
3819.9
3428.47
3075.65
2759.98
2479.39
2231.38
2013.26
1822.22
1655.55
1510.66
1385.22
1277.12
1184.57
1106
1040.08
985.709
941.886
907.73
882.402
865.065
854.849
850.823
851.983
857.254
865.499
875.541
886.206
896.355
904.932
911.009
913.822
912.805
907.613
898.126
884.451
866.904
845.984
822.341
796.739
770.009
743.013
716.606
691.597
668.72
648.612
631.789
618.636
609.39
604.141
602.833
605.27
611.13
619.996
631.377
644.758
659.636
675.569
692.22
709.391
727.048
745.33
764.533
785.077
807.456
832.166
859.631
890.124
923.703
960.155
998.979
1039.39
1080.37
1120.73
1159.22
1194.62
1225.92
1252.33
1273.46
1289.3
1300.25
1307.07
1310.8
1312.62
1313.72
1315.15
1317.67
1321.65
1327.02
1333.22
1339.31
1344.05
1346
1343.79
1336.19
1322.36
1301.91
1275.04
1242.5
1205.62
1166.15
1126.19
1087.99
1053.75
1025.54
1005.01
993.404
991.356
998.921
1015.55
1040.13
1071.1
1106.54
1144.33
1182.29
1218.35
1250.68
1277.8
1298.64
1312.61
1319.58
1319.82
1313.95
1302.86
1287.54
1269.05
1248.4
1226.46
1203.95
1181.37
1159.03
1137.09
1115.52
1094.21
1072.98
1051.6
1029.88
1007.61
984.661
960.958
936.485
911.3
885.536
859.401
833.178
807.22
781.942
757.8
735.26
714.742
696.536
680.671
666.704
653.375
638.034
615.737
578.179
514.667
454.578
14525
15000
14995.6
14988.1
14976.2
14958
14931.5
14893.9
14842.3
14772.9
14682
14565.1
14418.1
14236.5
14016.3
13753.9
13446.7
13092.7
12691.6
12244.2
11752.8
11221.1
10654.5
10059.4
9443.27
8814.18
8180.61
7551
6933.41
6335.18
5762.72
5221.27
4714.82
4246.06
3816.45
3426.27
3074.85
2760.66
2481.61
2235.15
2018.52
1828.89
1663.47
1519.67
1395.09
1287.62
1195.45
1117
1050.95
996.199
951.775
916.822
890.533
872.112
860.73
855.504
855.477
859.619
866.835
875.991
885.94
895.569
903.834
909.811
912.727
912.001
907.259
898.348
885.338
868.502
848.301
825.344
800.362
774.158
747.574
721.45
696.589
673.728
653.511
636.469
623.002
613.37
607.684
605.911
607.878
613.285
621.731
632.742
645.812
660.444
676.198
692.733
709.843
727.484
745.78
765.011
785.584
807.98
832.685
860.117
890.55
924.042
960.39
999.105
1039.41
1080.31
1120.62
1159.11
1194.56
1225.96
1252.52
1273.85
1289.92
1301.11
1308.17
1312.12
1314.12
1315.34
1316.81
1319.28
1323.12
1328.24
1334.12
1339.82
1344.1
1345.59
1342.92
1334.9
1320.72
1300.04
1273.07
1240.59
1203.94
1164.88
1125.49
1088.02
1054.65
1027.39
1007.9
997.326
996.288
1004.78
1022.22
1047.45
1078.88
1114.56
1152.37
1190.15
1225.83
1257.61
1284.04
1304.1
1317.24
1323.35
1322.77
1316.13
1304.32
1288.38
1269.36
1248.24
1225.9
1203.04
1180.13
1157.49
1135.23
1113.32
1091.64
1070
1048.18
1025.98
1003.23
979.805
955.659
930.803
905.327
879.394
853.241
827.176
801.571
776.853
753.482
731.918
712.564
695.688
681.29
668.901
657.276
643.911
624.351
591.335
533.911
463.817
14524.4
15000
14995.6
14988.1
14976.1
14958
14931.4
14893.8
14842.1
14772.6
14681.5
14564.5
14417.2
14235.4
14014.8
13752
13444.3
13089.8
12688.1
12239.9
11747.7
11215.3
10647.9
10052
9435.04
8805.26
8171.14
7541.14
6923.37
6325.22
5753.1
5212.3
4706.8
4239.3
3811.23
3422.85
3073.43
2761.4
2484.58
2240.38
2025.94
1838.37
1674.83
1532.64
1409.38
1302.89
1211.33
1133.12
1066.95
1011.71
966.469
930.408
902.766
882.803
869.753
862.798
861.052
863.55
869.263
877.112
885.998
894.842
902.623
908.42
911.454
911.117
906.999
898.899
886.832
871.013
851.841
829.872
805.785
780.343
754.356
728.644
704.001
681.166
660.793
643.432
629.509
619.313
612.988
610.536
611.815
616.556
624.385
634.851
647.463
661.733
677.223
693.587
710.607
728.223
746.539
765.813
786.432
808.856
833.558
860.948
891.297
924.669
960.874
999.435
1039.6
1080.39
1120.64
1159.12
1194.65
1226.2
1253
1274.63
1291.04
1302.6
1310.03
1314.31
1316.58
1317.98
1319.52
1321.93
1325.57
1330.37
1335.79
1340.93
1344.58
1345.39
1342.06
1333.44
1318.77
1297.74
1270.63
1238.23
1201.9
1163.42
1124.86
1088.44
1056.32
1030.45
1012.42
1003.34
1003.74
1013.56
1032.14
1058.28
1090.33
1126.34
1164.16
1201.63
1236.72
1267.67
1293.09
1312
1323.92
1328.81
1327.03
1319.28
1306.46
1289.63
1269.83
1248.05
1225.15
1201.78
1178.41
1155.31
1132.58
1110.18
1087.96
1065.73
1043.27
1020.4
996.96
972.87
948.108
922.732
896.872
870.738
844.604
818.814
793.767
769.905
747.691
727.575
709.937
695.005
682.721
672.55
663.163
651.975
634.426
602.89
544.979
469.139
14523.6
15000
14995.6
14988.1
14976.1
14957.9
14931.3
14893.6
14841.8
14772.2
14680.9
14563.7
14416.2
14233.9
14013
13749.7
13441.3
13086.2
12683.6
12234.6
11741.4
11208
10639.5
10042.6
9424.66
8793.99
8159.13
7528.6
6910.55
6312.43
5740.7
5200.66
4696.31
4230.36
3804.2
3418.06
3071.16
2761.86
2487.9
2246.58
2034.98
1850.1
1689.02
1548.98
1427.5
1322.37
1231.71
1153.93
1087.71
1031.97
985.79
948.407
919.119
897.252
882.121
872.991
869.064
869.463
873.24
879.389
886.877
894.669
901.774
907.283
910.405
910.506
907.129
900.015
889.11
874.553
856.669
835.943
812.988
788.514
763.289
738.106
713.746
690.948
670.379
652.613
638.107
627.188
620.043
616.714
617.105
620.985
628.015
637.773
649.789
663.587
678.731
694.87
711.772
729.356
747.698
767.03
787.71
810.176
834.882
862.226
892.478
925.709
961.739
1000.12
1040.11
1080.77
1120.95
1159.45
1195.1
1226.87
1253.98
1276
1292.87
1304.92
1312.83
1317.56
1320.2
1321.86
1323.52
1325.89
1329.31
1333.7
1338.57
1343.01
1345.87
1345.85
1341.68
1332.3
1317
1295.55
1268.24
1235.94
1200.02
1162.27
1124.76
1089.66
1059.1
1034.97
1018.79
1011.58
1013.78
1025.24
1045.22
1072.46
1105.25
1141.6
1179.36
1216.38
1250.67
1280.53
1304.61
1322.04
1332.4
1335.73
1332.44
1323.29
1309.21
1291.27
1270.51
1247.91
1224.29
1200.28
1176.33
1152.65
1129.33
1106.29
1083.37
1060.39
1037.13
1013.41
989.133
964.232
938.738
912.759
886.483
860.168
834.14
808.784
784.529
761.834
741.165
722.955
707.55
695.121
685.529
678.114
671.373
662.441
646.264
614.196
551.2
466.487
14522.6
15000
14995.6
14988.1
14976
14957.8
14931.1
14893.4
14841.5
14771.8
14680.3
14562.8
14415
14232.4
14010.9
13747
13438
13082
12678.5
12228.5
11734.2
11199.6
10629.9
10031.7
9412.58
8780.83
8145.04
7513.83
6895.39
6297.23
5725.86
5186.62
4683.54
4219.32
3795.33
3411.77
3067.79
2761.68
2491.08
2253.2
2044.99
1863.37
1705.3
1567.93
1448.71
1345.36
1255.95
1178.86
1112.77
1056.6
1009.48
970.686
939.577
915.564
898.05
886.401
879.921
877.836
879.298
883.394
889.163
895.633
901.852
906.926
910.057
910.583
907.996
901.971
892.372
879.255
862.854
843.569
821.936
798.598
774.274
749.722
725.705
702.96
682.168
663.927
648.733
636.955
628.831
624.454
623.778
626.622
632.688
641.589
652.881
666.103
680.825
696.687
713.442
730.982
749.354
768.758
789.518
812.042
836.763
864.066
894.216
927.293
963.134
1001.31
1041.13
1081.65
1121.77
1160.31
1196.12
1228.16
1255.67
1278.19
1295.63
1308.29
1316.82
1322.11
1325.23
1327.23
1329.07
1331.42
1334.62
1338.59
1342.83
1346.49
1348.44
1347.45
1342.32
1332.06
1316.03
1294.06
1266.53
1234.34
1198.89
1161.99
1125.69
1092.13
1063.4
1041.3
1027.25
1022.2
1026.46
1039.79
1061.35
1089.79
1123.36
1160.01
1197.61
1234.01
1267.28
1295.77
1318.24
1333.89
1342.39
1343.88
1338.83
1328.05
1312.52
1293.3
1271.44
1247.89
1223.45
1198.7
1174.05
1149.69
1125.65
1101.85
1078.11
1054.24
1030.04
1005.37
980.131
954.332
928.052
901.457
874.795
848.386
822.609
797.892
774.696
753.498
734.76
718.895
706.202
696.779
690.373
686.16
682.371
675.702
660.307
625.961
554.383
459.68
14521.9
15000
14995.6
14988
14976
14957.7
14931
14893.2
14841.1
14771.3
14679.6
14561.9
14413.7
14230.7
14008.7
13744.2
13434.4
13077.6
12673.1
12221.9
11726.4
11190.4
10619.4
10019.8
9399.32
8766.31
8129.44
7497.37
6878.4
6280.08
5708.99
5170.52
4668.72
4206.29
3784.62
3403.84
3063.05
2760.45
2493.6
2259.58
2055.25
1877.38
1722.83
1588.65
1472.17
1371.04
1283.28
1207.23
1141.54
1085.15
1037.21
997.037
964.071
937.801
917.729
903.332
894.027
889.16
887.995
889.724
893.479
898.358
903.458
907.912
910.919
911.79
909.966
905.051
896.825
885.246
870.452
852.744
832.571
810.501
787.191
763.356
739.738
717.067
696.037
677.273
661.308
648.564
639.33
633.761
631.866
633.52
638.475
646.385
656.836
669.386
683.61
699.143
715.718
733.202
751.606
771.092
791.947
814.547
839.297
866.569
896.624
929.548
965.198
1003.17
1042.8
1083.2
1123.28
1161.9
1197.92
1230.31
1258.3
1281.41
1299.54
1312.93
1322.19
1328.17
1331.87
1334.32
1336.41
1338.8
1341.81
1345.35
1348.95
1351.77
1352.74
1350.7
1344.52
1333.28
1316.44
1293.91
1266.12
1234.04
1199.12
1163.15
1128.19
1096.34
1069.62
1049.75
1038.06
1035.35
1041.85
1057.18
1080.4
1110.07
1144.38
1181.25
1218.52
1254.11
1286.12
1313
1333.58
1347.19
1353.6
1353.02
1346.03
1333.46
1316.34
1295.73
1272.68
1248.1
1222.76
1197.2
1171.77
1146.63
1121.78
1097.1
1072.43
1047.56
1022.33
996.605
970.36
943.639
916.585
889.429
862.485
836.134
810.81
786.986
765.152
745.796
729.375
716.27
706.725
700.744
697.942
697.28
696.653
692.183
676.99
638.904
555.873
443.439
14521.3
15000
14995.6
14988
14976
14957.6
14930.9
14893
14840.8
14770.8
14679
14561
14412.5
14229
14006.5
13741.4
13430.8
13073.1
12667.6
12215.2
11718.4
11181
10608.5
10007.4
9385.43
8751.02
8112.9
7479.82
6860.14
6261.51
5690.56
5152.73
4652.13
4191.46
3772.1
3394.17
3056.69
2757.8
2494.95
2265.12
2065.02
1891.32
1740.74
1610.2
1496.94
1398.52
1312.86
1238.26
1173.35
1117.05
1068.53
1027.17
992.447
963.95
941.281
924.03
911.741
903.885
899.854
898.956
900.427
903.449
907.183
910.794
913.49
914.558
913.394
909.531
902.659
892.638
879.499
863.441
844.814
824.101
801.89
778.846
755.68
733.113
711.847
692.533
675.745
661.955
651.513
644.635
641.395
641.73
645.447
652.246
661.748
673.534
687.187
702.336
718.696
736.103
754.534
774.108
795.072
817.764
842.562
869.819
899.792
932.574
968.042
1005.82
1045.29
1085.58
1125.66
1164.39
1200.67
1233.48
1262.04
1285.85
1304.77
1319.01
1329.12
1335.91
1340.31
1343.31
1345.75
1348.26
1351.12
1354.27
1357.22
1359.19
1359.17
1356.03
1348.74
1336.47
1318.77
1295.64
1267.58
1235.62
1201.25
1166.28
1132.75
1102.72
1078.14
1060.63
1051.42
1051.17
1059.99
1077.36
1102.24
1133.09
1168.03
1204.96
1241.73
1276.28
1306.8
1331.82
1350.29
1361.64
1365.77
1362.97
1353.9
1339.45
1320.66
1298.6
1274.31
1248.66
1222.37
1195.93
1169.65
1143.65
1117.9
1092.26
1066.56
1040.62
1014.28
987.48
960.22
932.611
904.86
877.267
850.211
824.134
799.522
776.889
756.749
739.596
725.872
715.918
709.908
707.744
708.877
712.023
714.679
712.291
696.791
654.027
560.365
427.751
14520.6
15000
14995.6
14988
14975.9
14957.6
14930.7
14892.8
14840.5
14770.4
14678.4
14560.2
14411.3
14227.5
14004.5
13738.7
13427.4
13068.8
12662.2
12208.7
11710.6
11171.8
10597.7
9995.02
9371.49
8735.55
8096.05
7461.79
6841.23
6242.09
5671.08
5133.71
4634.12
4175.06
3757.89
3382.73
3048.55
2753.41
2494.67
2269.2
2073.59
1904.37
1758.13
1631.67
1522.09
1426.85
1343.78
1271.12
1207.44
1151.65
1102.93
1060.68
1024.45
993.896
968.726
948.646
933.327
922.375
915.317
911.587
910.538
911.451
913.558
916.073
918.221
919.277
918.596
915.645
910.03
901.508
890.004
875.605
858.559
839.254
818.202
796.009
773.349
750.925
729.443
709.579
691.943
677.06
665.342
657.07
652.388
651.298
653.667
659.248
667.702
678.635
691.642
706.348
722.45
739.755
758.199
777.859
798.939
821.737
846.602
873.864
903.775
936.435
971.743
1009.35
1048.68
1088.89
1129
1167.91
1204.51
1237.81
1267.02
1291.62
1311.43
1326.64
1337.73
1345.44
1350.66
1354.31
1357.21
1359.92
1362.72
1365.53
1367.88
1369.03
1368
1363.76
1355.35
1342.04
1323.46
1299.7
1271.37
1239.55
1205.75
1171.82
1139.78
1111.65
1089.27
1074.2
1067.52
1069.76
1080.9
1100.28
1126.73
1158.63
1194.04
1230.84
1266.88
1300.16
1328.95
1351.89
1368.05
1376.98
1378.68
1373.56
1362.33
1345.95
1325.47
1301.96
1276.41
1249.67
1222.4
1195.05
1167.87
1140.93
1114.2
1087.52
1060.72
1033.65
1006.19
978.307
950.077
921.669
893.359
865.513
838.576
813.044
789.453
768.348
750.259
735.678
725.021
718.578
716.445
718.403
723.723
730.845
736.819
736.346
720.124
672.111
565.192
413.391
14520.5
15000
14995.6
14988
14975.9
14957.5
14930.6
14892.6
14840.3
14770.1
14677.9
14559.5
14410.3
14226.1
14002.7
13736.4
13424.4
13064.9
12657.4
12202.7
11703.3
11163.1
10587.5
9983.23
9358.07
8720.53
8079.51
7443.93
6822.29
6222.42
5651.12
5113.94
4615.11
4157.39
3742.19
3369.59
3038.54
2747.05
2492.39
2271.33
2080.34
1915.8
1774.19
1652.16
1546.68
1455.09
1375.12
1304.92
1243
1188.23
1139.78
1097.08
1059.71
1027.4
999.958
977.198
958.919
944.865
934.7
927.998
924.236
922.804
923.023
924.166
925.49
926.269
925.83
923.582
919.051
911.898
901.94
889.152
873.672
855.791
835.935
814.644
792.543
770.313
748.657
728.267
709.791
693.801
680.77
671.05
664.855
662.256
663.187
667.456
674.768
684.761
697.044
711.241
727.033
744.197
762.632
782.368
803.565
826.479
851.425
878.714
908.588
941.154
976.329
1013.8
1053.02
1093.19
1133.38
1172.5
1209.49
1243.35
1273.29
1298.77
1319.59
1335.86
1348.03
1356.79
1362.95
1367.38
1370.83
1373.85
1376.68
1379.23
1381.05
1381.42
1379.43
1374.12
1364.6
1350.24
1330.79
1306.42
1277.82
1246.15
1212.96
1180.11
1149.59
1123.38
1103.25
1090.62
1086.47
1091.18
1104.56
1125.84
1153.72
1186.5
1222.17
1258.6
1293.67
1325.44
1352.28
1372.93
1386.61
1392.98
1392.17
1384.67
1371.28
1352.97
1330.81
1305.86
1279.07
1251.24
1222.98
1194.67
1166.53
1138.61
1110.82
1083.03
1055.09
1026.86
998.271
969.358
940.248
911.181
882.501
854.641
828.103
803.437
781.214
762.001
746.336
734.697
727.461
724.859
726.894
733.211
742.888
754.066
763.313
764.53
747.069
692.661
570.25
391.177
14520
15000
14995.6
14988
14975.9
14957.5
14930.6
14892.5
14840.1
14769.8
14677.5
14558.9
14409.6
14225.1
14001.3
13734.5
13421.9
13061.7
12653.3
12197.6
11697
11155.5
10578.4
9972.56
9345.75
8706.56
8063.95
7426.89
6804
6203.17
5631.29
5094
4595.59
4138.87
3725.28
3354.92
3026.72
2738.64
2487.89
2271.13
2084.75
1924.99
1788.18
1670.86
1569.84
1482.34
1405.96
1338.76
1279.16
1225.99
1178.38
1135.75
1097.73
1064.09
1034.73
1009.55
988.496
971.432
958.17
948.422
941.802
937.82
935.898
935.383
935.578
935.775
935.283
933.469
929.787
923.809
915.249
903.97
890.002
873.529
854.886
834.537
813.052
791.079
769.31
748.447
729.166
712.087
697.741
686.548
678.795
674.625
674.043
676.915
682.998
691.964
703.441
717.055
732.474
749.448
767.837
787.628
808.933
831.968
857.009
884.345
914.208
946.71
981.787
1019.16
1058.3
1098.49
1138.79
1178.19
1215.62
1250.11
1280.85
1307.3
1329.21
1346.65
1360.01
1369.92
1377.13
1382.45
1386.57
1390
1392.96
1395.34
1396.71
1396.38
1393.49
1387.15
1376.56
1361.2
1340.91
1315.95
1287.12
1255.62
1223.06
1191.31
1162.34
1138.07
1120.18
1109.99
1108.31
1115.4
1130.91
1153.94
1183.06
1216.49
1252.18
1287.99
1321.83
1351.86
1376.53
1394.72
1405.78
1409.51
1406.13
1396.24
1380.69
1360.48
1336.69
1310.34
1282.34
1253.44
1224.17
1194.88
1165.74
1136.76
1107.87
1078.92
1049.8
1020.4
990.724
960.856
930.996
901.453
872.638
845.046
819.231
795.784
775.302
758.366
745.505
737.168
733.686
735.215
741.653
752.501
766.628
781.86
794.266
796.918
777.736
715.724
573.728
369.321
14519.7
15000
14995.6
14988
14975.8
14957.4
14930.5
14892.5
14840.1
14769.7
14677.3
14558.6
14409.1
14224.4
14000.3
13733.2
13420.2
13059.4
12650.3
12193.7
11692
11149.3
10570.9
9963.52
9335.11
8694.27
8050
7411.37
6787.05
6185.03
5612.28
5074.53
4576.14
4120.01
3707.6
3339.05
3013.29
2728.24
2481.08
2268.4
2086.48
1931.46
1799.53
1687.08
1590.8
1507.76
1435.44
1371.77
1315.08
1264.11
1217.96
1176.01
1137.9
1103.46
1072.63
1045.42
1021.87
1001.99
985.719
972.926
963.36
956.663
952.367
949.912
948.664
947.946
947.07
945.373
942.254
937.207
929.847
919.933
907.382
892.272
874.84
855.467
834.658
813.017
791.215
769.955
749.936
731.816
716.183
703.522
694.191
688.411
686.255
687.656
692.426
700.276
710.858
723.807
738.779
755.501
773.797
793.61
815.006
838.156
863.302
890.704
920.583
953.054
988.07
1025.38
1064.5
1104.73
1145.21
1184.92
1222.85
1258.03
1289.65
1317.13
1340.21
1358.91
1373.57
1384.72
1393.09
1399.4
1404.31
1408.26
1411.45
1413.75
1414.76
1413.81
1410.09
1402.79
1391.2
1374.88
1353.79
1328.3
1299.27
1267.99
1236.1
1205.49
1178.09
1155.76
1140.1
1132.29
1133.02
1142.37
1159.86
1184.43
1214.57
1248.41
1283.85
1318.77
1351.14
1379.19
1401.5
1417.08
1425.42
1426.43
1420.48
1408.21
1390.54
1368.5
1343.13
1315.43
1286.25
1256.28
1226
1195.71
1165.52
1135.44
1105.39
1075.25
1044.93
1014.39
983.686
952.978
922.535
892.737
864.058
837.05
812.311
790.46
772.112
757.842
748.157
743.468
744.041
749.945
760.964
776.443
795.033
814.239
829.628
833.433
812.098
741.725
578.648
354.819
14518.9
15000
14995.6
14988
14975.9
14957.5
14930.6
14892.5
14840.1
14769.7
14677.3
14558.6
14409
14224.2
14000
13732.6
13419.3
13058.1
12648.4
12191.2
11688.7
11144.9
10565.3
9956.61
9326.71
8684.26
8038.34
7398.04
6772.15
6168.71
5594.8
5056.23
4557.45
4101.42
3689.69
3322.43
2998.59
2716.1
2472.1
2263.13
2085.39
1934.92
1807.8
1700.29
1608.93
1530.64
1462.77
1403.11
1349.89
1301.74
1257.69
1217.07
1179.52
1144.87
1113.11
1084.34
1058.67
1036.26
1017.17
1001.41
988.875
979.347
972.483
967.826
964.824
962.85
961.237
959.311
956.433
952.031
945.633
936.9
925.641
911.824
895.585
877.214
857.141
835.917
814.18
792.623
771.957
752.875
736.011
721.912
711.01
703.598
699.824
699.692
703.069
709.714
719.309
731.5
745.94
762.336
780.479
800.27
821.73
844.984
870.237
897.721
927.642
960.115
995.108
1032.39
1071.53
1111.86
1152.55
1192.63
1231.11
1267.03
1299.58
1328.17
1352.49
1372.52
1388.55
1401.05
1410.67
1418.07
1423.85
1428.42
1431.94
1434.27
1435
1433.51
1429.05
1420.85
1408.33
1391.13
1369.31
1343.35
1314.19
1283.18
1252.02
1222.57
1196.77
1176.39
1162.93
1157.44
1160.47
1171.94
1191.23
1217.14
1248.06
1282.03
1316.96
1350.73
1381.38
1407.24
1427.01
1439.86
1445.39
1443.67
1435.14
1420.54
1400.81
1376.99
1350.11
1321.11
1290.79
1259.77
1228.47
1197.14
1165.86
1134.63
1103.38
1072.03
1040.52
1008.89
977.26
945.859
915.035
885.236
856.997
830.916
807.625
787.763
771.943
760.722
754.572
753.846
758.734
769.207
784.919
805.053
828.038
851.058
869.178
873.796
849.841
770.481
586.417
341.493
14518.2
15000
14995.6
14988
14975.9
14957.5
14930.6
14892.6
14840.2
14769.8
14677.5
14558.8
14409.3
14224.6
14000.3
13732.9
13419.5
13058.1
12648.1
12190.4
11687.3
11142.8
10562.2
9952.33
9321.09
8677.14
8029.6
7387.62
6760.03
6154.99
5579.63
5039.88
4540.26
4083.84
3672.23
3305.67
2983.15
2702.64
2461.24
2255.5
2081.53
1935.31
1812.81
1710.15
1623.75
1550.4
1487.28
1432.05
1382.8
1338.05
1296.73
1258.11
1221.79
1187.58
1155.51
1125.71
1098.4
1073.82
1052.18
1033.61
1018.16
1005.75
996.167
989.085
984.04
980.479
977.773
975.26
972.278
968.207
962.504
954.738
944.616
932
916.918
899.564
880.286
859.569
838.007
816.272
795.076
775.134
757.122
741.645
729.199
720.156
714.737
713.016
714.928
720.28
728.792
740.127
753.943
769.928
787.847
807.562
829.048
852.388
877.745
905.324
935.311
967.818
1002.83
1040.13
1079.33
1119.79
1160.73
1201.23
1240.29
1277
1310.52
1340.27
1365.89
1387.32
1404.79
1418.71
1429.66
1438.24
1444.98
1450.26
1454.18
1456.62
1457.16
1455.22
1450.08
1441.08
1427.7
1409.7
1387.23
1360.87
1331.66
1301
1270.62
1242.4
1218.22
1199.79
1188.5
1185.27
1190.49
1203.94
1224.84
1251.86
1283.3
1317.14
1351.28
1383.64
1412.34
1435.82
1452.92
1462.92
1465.6
1461.14
1450.06
1433.18
1411.46
1385.94
1357.6
1327.35
1295.92
1263.85
1231.51
1199.1
1166.7
1134.29
1101.82
1069.25
1036.6
1003.96
971.526
939.615
908.644
879.128
851.656
826.864
805.407
787.927
775.022
767.218
764.932
768.446
777.859
793.028
813.474
838.207
865.433
892.02
912.542
917.558
890.451
801.451
596.417
328.99
14516.5
15000
14995.6
14988
14975.9
14957.6
14930.7
14892.7
14840.4
14770.2
14677.9
14559.4
14410.1
14225.5
14001.4
13734.1
13420.8
13059.4
12649.4
12191.6
11688.2
11143.1
10561.9
9951.11
9318.75
8673.47
8024.41
7380.77
6751.44
6144.64
5567.59
5026.3
4525.42
4068.09
3656.02
3289.53
2967.68
2688.47
2449.04
2245.91
2075.19
1932.77
1814.54
1716.52
1635.01
1566.63
1508.45
1457.95
1413.09
1372.25
1334.26
1298.29
1263.86
1230.77
1199.03
1168.81
1140.39
1114.1
1090.25
1069.11
1050.88
1035.6
1023.23
1013.55
1006.22
1000.76
996.626
993.168
989.731
985.663
980.366
973.329
964.166
952.633
938.655
922.322
903.891
883.772
862.503
840.721
819.13
798.453
779.4
762.626
748.69
738.035
730.959
727.612
727.993
731.969
739.301
749.681
762.772
778.255
795.871
815.446
836.915
860.315
885.771
913.452
943.526
976.1
1011.16
1048.52
1087.81
1128.46
1169.69
1210.62
1250.31
1287.83
1322.37
1353.31
1380.27
1403.15
1422.11
1437.52
1449.86
1459.68
1467.46
1473.51
1477.92
1480.53
1480.95
1478.62
1472.89
1463.16
1449
1430.28
1407.25
1380.58
1351.4
1321.18
1291.66
1264.73
1242.21
1225.74
1216.6
1215.56
1222.86
1238.13
1260.43
1288.34
1320.04
1353.49
1386.59
1417.3
1443.84
1464.76
1479.05
1486.15
1485.95
1478.74
1465.16
1446.06
1422.43
1395.27
1365.54
1334.07
1301.54
1268.41
1235.02
1201.51
1167.95
1134.34
1100.65
1066.9
1033.16
999.623
966.555
934.349
903.498
874.577
848.219
825.09
805.855
791.144
781.527
777.477
779.345
787.323
801.407
821.33
846.468
875.656
906.881
936.702
959.219
964.18
933.497
834.846
610.22
318.227
14516
15000
14995.6
14988
14976
14957.7
14930.9
14893
14840.8
14770.7
14678.6
14560.3
14411.3
14227
14003.2
13736.3
13423.3
13062.3
12652.5
12194.8
11691.5
11146.3
10564.7
9953.35
9320.16
8673.78
8023.38
7378.18
6747.1
6138.44
5559.5
5016.39
4513.83
4055.09
3641.98
3274.91
2953.03
2674.4
2436.21
2235
2066.86
1927.67
1813.23
1719.49
1642.62
1579.13
1525.91
1480.32
1440.16
1403.66
1369.5
1336.77
1304.88
1273.57
1242.83
1212.83
1183.89
1156.4
1130.77
1107.4
1086.59
1068.57
1053.4
1041.02
1031.2
1023.6
1017.72
1012.98
1008.74
1004.34
999.15
992.586
984.18
973.593
960.643
945.316
927.772
908.336
887.477
865.789
843.947
822.679
802.713
784.746
769.395
757.171
748.447
743.448
742.246
744.771
750.833
760.156
772.422
787.308
804.536
823.904
845.306
868.737
894.279
922.069
952.25
984.918
1020.06
1057.52
1096.95
1137.8
1179.35
1220.76
1261.09
1299.45
1335.03
1367.18
1395.52
1419.88
1440.38
1457.3
1471.08
1482.2
1491.06
1497.93
1502.87
1505.71
1506.07
1503.41
1497.15
1486.75
1471.89
1452.53
1429.03
1402.16
1373.12
1343.43
1314.86
1289.29
1268.48
1253.99
1246.96
1248.05
1257.31
1274.24
1297.75
1326.31
1358.02
1390.83
1422.64
1451.48
1475.67
1493.89
1505.27
1509.41
1506.32
1496.4
1480.37
1459.12
1433.63
1404.9
1373.82
1341.17
1307.54
1273.35
1238.88
1204.24
1169.51
1134.69
1099.8
1064.93
1030.22
995.928
962.425
930.175
899.74
871.747
846.868
825.783
809.153
797.584
791.597
791.6
797.858
810.464
829.292
853.944
883.642
917.049
951.936
984.572
1008.61
1013.03
978.347
869.483
621.865
310.757
14514.5
15000
14995.6
14988.1
14976
14957.8
14931.1
14893.3
14841.3
14771.4
14679.6
14561.6
14412.9
14229.1
14005.8
13739.5
13427.1
13066.7
12657.5
12200.4
11697.4
11152.5
10570.9
9959.36
9325.68
8678.52
8027.02
7380.42
6747.68
6137.15
5556.19
5011.01
4506.42
4045.82
3631.1
3262.8
2940.17
2661.37
2423.64
2223.57
2057.28
1920.62
1809.36
1719.39
1646.77
1587.89
1539.53
1498.86
1463.55
1431.68
1401.77
1372.78
1344.01
1315.12
1286.04
1256.91
1228.08
1199.96
1173.06
1147.85
1124.78
1104.2
1086.32
1071.21
1058.81
1048.86
1040.97
1034.64
1029.28
1024.23
1018.83
1012.47
1004.6
994.791
982.768
968.41
951.773
933.09
912.753
891.295
869.356
847.65
826.916
807.88
791.211
777.481
767.139
760.484
757.664
758.675
763.386
771.56
782.901
797.095
813.851
832.942
854.224
877.652
903.267
931.169
961.474
994.264
1029.53
1067.12
1106.72
1147.8
1189.71
1231.6
1272.6
1311.81
1348.44
1381.83
1411.55
1437.41
1459.46
1477.93
1493.18
1505.61
1515.58
1523.31
1528.82
1531.92
1532.25
1529.3
1522.55
1511.55
1496.06
1476.15
1452.27
1425.3
1396.5
1367.45
1339.93
1315.8
1296.76
1284.26
1279.33
1282.46
1293.58
1312
1336.52
1365.5
1396.99
1428.9
1459.18
1485.95
1507.62
1523.02
1531.43
1532.57
1526.6
1514.02
1495.59
1472.26
1444.98
1414.73
1382.34
1348.52
1313.79
1278.53
1242.95
1207.18
1171.27
1135.26
1099.23
1063.32
1027.78
992.932
959.233
927.225
897.529
870.821
847.794
829.134
815.482
807.4
805.349
809.653
820.478
837.798
861.361
890.624
924.656
961.947
1000.07
1035.01
1060.04
1063.42
1024.36
905.46
639.648
308.062
14513.3
15000
14995.6
14988.1
14976.1
14958
14931.4
14893.7
14841.9
14772.2
14680.8
14563.2
14415
14231.8
14009.3
13743.7
13432.2
13072.7
12664.4
12208.1
11706
11161.7
10580.6
9969.32
9335.57
8688
8035.73
7387.99
6753.77
6141.43
5558.42
5011
4504.12
4041.24
3624.42
3254.29
2930.22
2650.47
2412.39
2212.64
2047.36
1912.43
1803.63
1716.76
1647.84
1593.15
1549.34
1513.46
1483
1455.89
1430.51
1405.65
1380.5
1354.6
1327.8
1300.2
1272.11
1243.99
1216.36
1189.81
1164.87
1142.02
1121.6
1103.85
1088.82
1076.4
1066.31
1058.14
1051.35
1045.33
1039.42
1032.98
1025.41
1016.19
1004.97
991.511
975.774
957.892
938.171
917.072
895.188
873.203
851.857
831.894
814.023
798.875
786.966
778.674
774.22
773.675
776.967
783.909
794.237
807.649
823.85
842.593
863.702
887.093
912.765
940.78
971.224
1004.16
1039.58
1077.33
1117.13
1158.49
1200.76
1243.16
1284.83
1324.91
1362.58
1397.21
1428.32
1455.69
1479.29
1499.31
1516.03
1529.8
1540.89
1549.48
1555.56
1558.94
1559.26
1556.05
1548.85
1537.29
1521.23
1500.84
1476.69
1449.71
1421.27
1392.97
1366.6
1343.99
1326.77
1316.29
1313.43
1318.54
1331.39
1351.14
1376.47
1405.64
1436.67
1467.46
1496.01
1520.51
1539.52
1552
1557.37
1555.51
1546.68
1531.48
1510.73
1485.38
1456.38
1424.65
1390.97
1355.99
1320.17
1283.82
1247.13
1210.21
1173.13
1135.98
1098.9
1062.1
1025.9
990.725
957.107
925.658
897.053
872
851.206
835.345
825.021
820.741
822.883
831.676
847.169
869.21
897.404
931.063
969.101
1009.84
1050.67
1087.35
1112.76
1114.58
1070.91
942.667
662.376
307.233
14512.3
15000
14995.6
14988.2
14976.2
14958.1
14931.7
14894.2
14842.6
14773.2
14682.2
14565.1
14417.5
14235
14013.4
13748.8
13438.4
13080.1
12673.1
12218.1
11717.2
11174
10593.9
9983.28
9349.93
8702.39
8049.75
7401.22
6765.78
6151.82
5566.82
5017.13
4507.77
4042.33
3622.97
3250.46
2924.3
2642.87
2403.63
2203.33
2038.19
1904.12
1796.92
1712.38
1646.46
1595.37
1555.65
1524.22
1498.43
1476.06
1455.32
1434.86
1413.7
1391.28
1367.32
1341.87
1315.17
1287.68
1259.95
1232.6
1206.27
1181.52
1158.86
1138.63
1121.03
1106.1
1093.68
1083.46
1075
1067.73
1061.02
1054.21
1046.67
1037.83
1027.24
1014.58
999.703
982.64
963.602
942.974
921.284
899.179
877.382
856.646
837.71
821.253
807.855
797.967
791.889
789.765
791.592
797.237
806.474
819.023
834.593
852.92
873.804
897.123
922.834
950.961
981.559
1014.67
1050.27
1088.22
1128.25
1169.9
1212.56
1255.48
1297.83
1338.77
1377.5
1413.35
1445.84
1474.7
1499.86
1521.42
1539.61
1554.69
1566.89
1576.33
1582.98
1586.62
1586.93
1583.47
1575.84
1563.76
1547.19
1526.39
1502.04
1475.18
1447.2
1419.76
1394.65
1373.64
1358.3
1349.85
1349.03
1356.05
1370.5
1391.42
1417.36
1446.51
1476.84
1506.29
1532.89
1554.97
1571.19
1580.67
1582.98
1578.12
1566.47
1548.71
1525.7
1498.38
1467.71
1434.54
1399.6
1363.47
1326.53
1289.08
1251.28
1213.23
1175.03
1136.83
1098.81
1061.29
1024.66
989.432
956.209
925.667
898.525
875.512
857.331
844.628
837.956
837.747
844.286
857.685
877.867
904.54
937.166
974.905
1016.52
1060.18
1103.11
1140.86
1166.02
1165.75
1117.37
980.909
687.113
306.902
14511.4
15000
14995.6
14988.2
14976.4
14958.3
14932
14894.7
14843.3
14774.3
14683.7
14567.2
14420.3
14238.7
14018.1
13754.7
13445.6
13088.8
12683.4
12230
11730.7
11189.2
10610.5
10001.1
9368.65
8721.67
8069.15
7420.26
6783.97
6168.67
5581.87
5029.98
4518.09
4049.91
3627.7
3252.37
2923.55
2639.76
2398.58
2196.88
2030.98
1896.85
1790.33
1707.23
1643.48
1595.24
1558.97
1531.49
1510.01
1492.17
1476.03
1460.06
1443.15
1424.58
1403.95
1381.2
1356.52
1330.3
1303.1
1275.57
1248.39
1222.23
1197.69
1175.25
1155.26
1137.87
1123.07
1110.67
1100.33
1091.55
1083.75
1076.29
1068.51
1059.8
1049.65
1037.64
1023.54
1007.28
988.957
968.882
947.51
925.434
903.348
882
862.149
844.512
829.728
818.314
810.648
806.949
807.286
811.587
819.672
831.291
846.16
864.012
884.621
907.832
933.565
961.801
992.562
1025.86
1061.67
1099.85
1140.14
1182.11
1225.18
1268.63
1311.67
1353.47
1393.24
1430.31
1464.17
1494.51
1521.2
1544.28
1563.91
1580.28
1593.57
1603.83
1611.01
1614.9
1615.17
1611.45
1603.4
1590.83
1573.78
1552.66
1528.2
1501.54
1474.14
1447.67
1423.93