<?xml version="1.0"?>
<VTKFile type="ImageData" version="0.1" byte_order="LittleEndian">
  <ImageData Origin="0 0 0" Spacing="1e-05 1e-05 1e-05" WholeExtent="0 191 0 191 0 0">
    <Piece Extent="0 191 0 191 0 0">
      <CellData Scalars="T">
        <DataArray type="Float32" Name="T" format="ascii" NumberOfComponents="1">
553.361
15000
15000
15000
15000
15000
15000
15000
15000
15000
15000
15000
15000
15000
15000
15000
15000
15000
14999.9
14999.9
14999.9
14999.8
14999.8
14999.7
14999.6
14999.5
14999.4
14999.2
14998.9
14998.6
14998.2
14997.7
14997.1
14996.3
14995.3
14994.1
14992.6
14990.8
14988.5
14985.8
14982.5
14978.5
14973.7
14967.9
14961.1
14953
14943.4
14932.1
14918.9
14903.5
14885.5
14864.8
14840.8
14813.3
14781.9
14746.1
14705.4
14659.4
14607.7
14549.7
14484.9
14412.7
14332.8
14244.5
14147.3
14040.9
13924.7
13798.4
13661.5
13513.7
13354.9
13184.8
13003.2
12810.2
12605.8
12390.2
12163.5
11926.1
11678.4
11421
11154.4
10879.4
10596.7
10307.3
10012
9711.88
9408.03
9101.55
8793.58
8485.28
8177.85
7872.44
7570.23
7272.35
6979.9
6693.92
6415.41
6145.28
5884.39
5633.5
5393.28
5164.34
4947.17
4742.16
4549.63
4369.8
4202.79
4048.65
3907.34
3778.74
3662.67
3558.88
3467.07
3386.89
3317.93
3259.78
3211.97
3174.02
3145.42
3125.68
3114.28
3110.69
3114.41
3124.93
3141.75
3164.38
3192.34
3225.18
3262.44
3303.69
3348.51
3396.51
3447.28
3500.46
3555.67
3612.58
3670.84
3730.13
3790.12
3850.52
3911.03
3971.36
4031.24
4090.4
4148.58
4205.55
4261.06
4314.91
4366.87
4416.76
4464.39
4509.59
4552.21
4592.11
4629.17
4663.28
4694.35
4722.3
4747.06
4768.61
4786.9
4801.93
4813.68
4822.18
4827.45
4829.53
4828.47
4824.33
4817.2
4807.16
4794.29
4778.71
4760.54
4739.88
4716.87
4691.64
4664.32
4635
4603.77
4570.61
4535.35
4497.49
4455.92
4408.29
4349.96
4271.72
4155.58
3966.15
3633.28
3014.19
1803.38
323.012
1392.57
15000
15000
15000
15000
15000
15000
15000
15000
15000
15000
15000
15000
15000
15000
15000
15000
15000
14999.9
14999.9
14999.9
14999.8
14999.8
14999.7
14999.6
14999.5
14999.4
14999.2
14998.9
14998.6
14998.2
14997.7
14997.1
14996.3
14995.3
14994.1
14992.6
14990.8
14988.5
14985.8
14982.5
14978.5
14973.7
14967.9
14961.1
14953
14943.4
14932.1
14918.9
14903.5
14885.5
14864.8
14840.9
14813.4
14781.9
14746.1
14705.5
14659.5
14607.8
14549.8
14485
14412.9
14332.9
14244.6
14147.5
14041.1
13924.9
13798.6
13661.7
13514
13355.2
13185.1
13003.5
12810.6
12606.2
12390.5
12163.9
11926.5
11678.8
11421.4
11154.8
10879.8
10597.1
10307.6
10012.3
9712.22
9408.35
9101.84
8793.83
8485.49
8178.01
7872.55
7570.28
7272.33
6979.8
6693.74
6415.14
6144.92
5883.93
5632.94
5392.62
5163.56
4946.27
4741.14
4548.49
4368.54
4201.4
4047.13
3905.68
3776.95
3660.75
3556.83
3464.89
3384.57
3315.49
3257.21
3209.28
3171.2
3142.49
3122.63
3111.11
3107.41
3111.02
3121.44
3138.16
3160.69
3188.57
3221.32
3258.5
3299.68
3344.43
3392.36
3443.07
3496.2
3551.37
3608.24
3666.46
3725.72
3785.7
3846.08
3906.58
3966.91
4026.79
4085.96
4144.16
4201.15
4256.7
4310.58
4362.58
4412.51
4460.19
4505.44
4548.12
4588.08
4625.2
4659.37
4690.5
4718.51
4743.34
4764.95
4783.31
4798.39
4810.2
4818.76
4824.08
4826.22
4825.21
4821.12
4814.03
4804.03
4791.2
4775.66
4757.51
4736.89
4713.91
4688.7
4661.4
4632.11
4600.9
4567.76
4532.52
4494.7
4453.16
4405.62
4347.47
4269.69
4154.78
3969.05
3648.25
3072.49
2031.85
388.298
1378.76
15000
15000
15000
15000
15000
15000
15000
15000
15000
15000
15000
15000
15000
15000
15000
15000
15000
14999.9
14999.9
14999.9
14999.8
14999.8
14999.7
14999.6
14999.5
14999.4
14999.2
14998.9
14998.6
14998.2
14997.7
14997.1
14996.3
14995.3
14994.1
14992.6
14990.8
14988.5
14985.8
14982.5
14978.5
14973.7
14968
14961.1
14953
14943.4
14932.2
14918.9
14903.5
14885.6
14864.9
14840.9
14813.5
14782
14746.2
14705.6
14659.7
14608
14550
14485.2
14413.1
14333.2
14244.9
14147.8
14041.5
13925.3
13799
13662.2
13514.5
13355.7
13185.6
13004.1
12811.2
12606.9
12391.2
12164.6
11927.2
11679.6
11422.2
11155.6
10880.6
10597.9
10308.4
10013.1
9712.92
9408.99
9102.42
8794.34
8485.91
8178.33
7872.76
7570.37
7272.28
6979.61
6693.39
6414.61
6144.21
5883.02
5631.82
5391.29
5162.01
4944.49
4739.12
4546.23
4366.02
4198.63
4044.1
3902.39
3773.4
3656.93
3552.75
3460.55
3379.97
3310.64
3252.1
3203.91
3165.59
3136.64
3116.55
3104.8
3100.88
3104.28
3114.49
3131.01
3153.36
3181.05
3213.63
3250.65
3291.68
3336.29
3384.09
3434.69
3487.71
3542.78
3599.57
3657.73
3716.93
3776.87
3837.22
3897.7
3958.03
4017.92
4077.11
4135.35
4192.38
4247.99
4301.93
4354.02
4404.03
4451.81
4497.16
4539.95
4580.02
4617.26
4651.56
4682.81
4710.95
4735.91
4757.65
4776.13
4791.33
4803.27
4811.94
4817.37
4819.61
4818.7
4814.71
4807.71
4797.79
4785.04
4769.56
4751.48
4730.92
4707.99
4682.84
4655.58
4626.34
4595.17
4562.07
4526.88
4489.1
4447.65
4400.25
4342.39
4265.25
4151.85
3969.74
3657.42
3099.38
2082.21
387.731
1365.22
15000
15000
15000
15000
15000
15000
15000
15000
15000
15000
15000
15000
15000
15000
15000
15000
15000
14999.9
14999.9
14999.9
14999.8
14999.8
14999.7
14999.6
14999.5
14999.4
14999.2
14998.9
14998.6
14998.2
14997.7
14997.1
14996.3
14995.3
14994.1
14992.6
14990.8
14988.5
14985.8
14982.5
14978.5
14973.7
14968
14961.2
14953.1
14943.5
14932.2
14919
14903.6
14885.7
14864.9
14841
14813.6
14782.2
14746.4
14705.8
14659.9
14608.2
14550.3
14485.5
14413.5
14333.6
14245.4
14148.3
14042
13925.9
13799.7
13662.9
13515.3
13356.5
13186.5
13005.1
12812.2
12607.9
12392.3
12165.7
11928.4
11680.8
11423.4
11156.8
10881.8
10599
10309.5
10014.2
9713.95
9409.96
9103.29
8795.1
8486.55
8178.82
7873.09
7570.51
7272.23
6979.33
6692.87
6413.84
6143.16
5881.69
5630.18
5389.33
5159.72
4941.85
4736.13
4542.87
4362.29
4194.51
4039.6
3897.51
3768.12
3651.26
3546.69
3454.09
3373.13
3303.41
3244.5
3195.94
3157.25
3127.93
3107.49
3095.4
3091.15
3094.23
3104.13
3120.36
3142.42
3169.84
3202.17
3238.95
3279.75
3324.15
3371.76
3422.18
3475.04
3529.98
3586.64
3644.7
3703.82
3763.69
3824
3884.45
3944.77
4004.67
4063.9
4122.18
4179.29
4234.97
4289.02
4341.22
4391.37
4439.28
4484.79
4527.74
4567.99
4605.4
4639.88
4671.32
4699.65
4724.8
4746.72
4765.39
4780.78
4792.89
4801.73
4807.33
4809.72
4808.96
4805.11
4798.25
4788.45
4775.81
4760.45
4742.46
4721.99
4699.15
4674.07
4646.88
4617.7
4586.6
4553.56
4518.44
4480.74
4439.39
4392.16
4334.61
4258.1
4145.98
3966.45
3658.9
3107.54
2087.84
385.984
1356.85
15000
15000
15000
15000
15000
15000
15000
15000
15000
15000
15000
15000
15000
15000
15000
15000
15000
14999.9
14999.9
14999.9
14999.8
14999.8
14999.7
14999.6
14999.5
14999.4
14999.2
14998.9
14998.6
14998.2
14997.7
14997.1
14996.3
14995.3
14994.1
14992.6
14990.8
14988.6
14985.8
14982.5
14978.5
14973.8
14968
14961.2
14953.1
14943.5
14932.3
14919.1
14903.7
14885.8
14865.1
14841.2
14813.8
14782.4
14746.6
14706.1
14660.2
14608.6
14550.7
14486
14414
14334.1
14246
14149
14042.7
13926.7
13800.5
13663.8
13516.3
13357.6
13187.7
13006.3
12813.5
12609.2
12393.7
12167.2
11929.9
11682.3
11424.9
11158.4
10883.3
10600.6
10311
10015.6
9715.33
9411.24
9104.46
8796.12
8487.41
8179.49
7873.54
7570.72
7272.17
6978.98
6692.21
6412.84
6141.8
5879.94
5628.04
5386.76
5156.71
4938.39
4732.2
4538.46
4357.38
4189.11
4033.69
3891.08
3761.17
3643.8
3538.7
3445.59
3364.12
3293.88
3234.47
3185.41
3146.24
3116.45
3095.54
3083
3078.31
3080.97
3090.46
3106.29
3127.97
3155.04
3187.02
3223.48
3263.98
3308.1
3355.45
3405.64
3458.28
3513.03
3569.53
3627.45
3686.45
3746.23
3806.48
3866.9
3927.21
3987.12
4046.38
4104.73
4161.92
4217.72
4271.9
4324.25
4374.56
4422.66
4468.37
4511.54
4552.01
4589.66
4624.38
4656.07
4684.64
4710.04
4732.22
4751.13
4766.76
4779.1
4788.17
4793.99
4796.59
4796.03
4792.37
4785.68
4776.04
4763.56
4748.34
4730.48
4710.13
4687.4
4662.42
4635.33
4606.24
4575.22
4542.27
4507.23
4469.62
4428.4
4381.35
4324.11
4248.14
4137.01
3959.27
3654.8
3109.46
2108.56
385.912
1367.38
15000
15000
15000
15000
15000
15000
15000
15000
15000
15000
15000
15000
15000
15000
15000
15000
15000
14999.9
14999.9
14999.9
14999.8
14999.8
14999.7
14999.6
14999.5
14999.4
14999.2
14998.9
14998.6
14998.2
14997.7
14997.1
14996.3
14995.3
14994.1
14992.6
14990.8
14988.6
14985.8
14982.5
14978.6
14973.8
14968.1
14961.2
14953.2
14943.6
14932.4
14919.2
14903.8
14885.9
14865.2
14841.4
14814
14782.6
14746.9
14706.4
14660.6
14609
14551.1
14486.5
14414.6
14334.8
14246.7
14149.8
14043.6
13927.7
13801.6
13665
13517.5
13359
13189.1
13007.8
12815.1
12610.9
12395.5
12169
11931.8
11684.2
11426.9
11160.3
10885.3
10602.5
10312.9
10017.4
9717.05
9412.84
9105.91
8797.4
8488.49
8180.33
7874.12
7571.01
7272.13
6978.59
6691.43
6411.64
6140.16
5877.83
5625.43
5383.64
5153.04
4934.16
4727.39
4533.05
4351.37
4182.48
4026.42
3883.18
3752.64
3634.62
3528.88
3435.13
3353.02
3282.16
3222.12
3172.45
3132.67
3102.29
3080.8
3067.7
3062.46
3064.59
3073.57
3088.91
3110.12
3136.74
3168.29
3204.35
3244.47
3288.25
3335.27
3385.16
3437.54
3492.05
3548.34
3606.08
3664.94
3724.61
3784.77
3845.14
3905.43
3965.36
4024.67
4083.09
4140.38
4196.31
4250.65
4303.18
4353.7
4402.03
4447.98
4491.41
4532.16
4570.1
4605.11
4637.11
4665.99
4691.7
4714.18
4733.39
4749.32
4761.96
4771.31
4777.4
4780.26
4779.95
4776.52
4770.05
4760.62
4748.33
4733.28
4715.59
4695.38
4672.79
4647.95
4620.97
4591.99
4561.08
4528.23
4493.29
4455.8
4414.71
4367.85
4310.89
4235.39
4125.06
3948.66
3646.43
3104.43
2107.13
384.189
1419.96
15000
15000
15000
15000
15000
15000
15000
15000
15000
15000
15000
15000
15000
15000
15000
15000
15000
14999.9
14999.9
14999.9
14999.8
14999.8
14999.7
14999.6
14999.5
14999.4
14999.2
14998.9
14998.6
14998.2
14997.7
14997.1
14996.3
14995.3
14994.1
14992.7
14990.8
14988.6
14985.9
14982.6
14978.6
14973.8
14968.1
14961.3
14953.2
14943.7
14932.5
14919.3
14903.9
14886.1
14865.4
14841.6
14814.2
14782.9
14747.3
14706.8
14661
14609.5
14551.7
14487.1
14415.3
14335.6
14247.6
14150.8
14044.7
13928.8
13802.9
13666.3
13519
13360.5
13190.8
13009.6
12817
12612.9
12397.6
12171.1
11934
11686.5
11429.2
11162.6
10887.6
10604.8
10315.2
10019.6
9719.11
9414.76
9107.66
8798.95
8489.8
8181.37
7874.85
7571.39
7272.13
6978.16
6690.55
6410.28
6138.28
5875.39
5622.41
5380
5148.77
4929.22
4721.77
4526.73
4344.32
4174.7
4017.9
3873.91
3742.61
3623.82
3517.33
3422.82
3339.95
3268.34
3207.56
3157.15
3116.66
3085.57
3063.4
3049.62
3043.74
3045.23
3053.6
3068.35
3089
3115.08
3146.13
3181.7
3221.37
3264.73
3311.36
3360.89
3412.95
3467.17
3523.21
3580.73
3639.41
3698.94
3759
3819.3
3879.56
3939.5
3998.85
4057.36
4114.77
4170.85
4225.37
4278.11
4328.87
4377.46
4423.71
4467.44
4508.52
4546.79
4582.16
4614.51
4643.76
4669.83
4692.67
4712.25
4728.53
4741.51
4751.2
4757.61
4760.79
4760.77
4757.62
4751.41
4742.22
4730.16
4715.32
4697.83
4677.8
4655.38
4630.69
4603.86
4575.01
4544.22
4511.5
4476.68
4439.32
4398.38
4351.71
4295.02
4219.92
4110.23
3934.79
3633.77
3092.18
2088.08
379.917
1435.52
15000
15000
15000
15000
15000
15000
15000
15000
15000
15000
15000
15000
15000
15000
15000
15000
15000
14999.9
14999.9
14999.9
14999.9
14999.8
14999.7
14999.6
14999.5
14999.4
14999.2
14998.9
14998.6
14998.2
14997.7
14997.1
14996.3
14995.4
14994.2
14992.7
14990.8
14988.6
14985.9
14982.6
14978.6
14973.9
14968.2
14961.4
14953.3
14943.8
14932.6
14919.4
14904.1
14886.3
14865.6
14841.9
14814.5
14783.3
14747.6
14707.2
14661.5
14610.1
14552.3
14487.9
14416.1
14336.5
14248.6
14151.9
14045.9
13930.2
13804.3
13667.9
13520.7
13362.4
13192.7
13011.7
12819.1
12615.2
12399.9
12173.6
11936.5
11689.1
11431.8
11165.3
10890.3
10607.5
10317.8
10022.1
9721.51
9417
9109.71
8800.77
8491.34
8182.61
7875.73
7571.88
7272.19
6977.75
6689.62
6408.79
6136.19
5872.67
5619.02
5375.91
5143.95
4923.64
4715.41
4519.56
4336.33
4165.87
4008.22
3863.36
3731.19
3611.53
3504.16
3408.77
3325.03
3252.56
3190.92
3139.68
3098.35
3066.45
3043.48
3028.93
3022.29
3023.05
3030.71
3044.78
3064.78
3090.23
3120.69
3155.7
3194.84
3237.7
3283.88
3332.99
3384.67
3438.55
3494.29
3551.55
3610.02
3669.37
3729.3
3789.52
3849.74
3909.68
3969.08
4027.67
4085.21
4141.46
4196.18
4249.16
4300.19
4349.08
4395.65
4439.73
4481.18
4519.84
4555.6
4588.36
4618.03
4644.52
4667.78
4687.77
4704.46
4717.84
4727.91
4734.7
4738.23
4738.55
4735.72
4729.81
4720.91
4709.12
4694.53
4677.26
4657.45
4635.22
4610.71
4584.05
4555.36
4524.72
4492.14
4457.46
4420.25
4379.47
4333
4276.56
4201.83
4092.66
3917.92
3617.73
3076.69
2069.13
374.498
1509.69
15000
15000
15000
15000
15000
15000
15000
15000
15000
15000
15000
15000
15000
15000
15000
15000
15000
14999.9
14999.9
14999.9
14999.9
14999.8
14999.7
14999.6
14999.5
14999.4
14999.2
14998.9
14998.6
14998.2
14997.7
14997.1
14996.3
14995.4
14994.2
14992.7
14990.9
14988.6
14985.9
14982.6
14978.7
14973.9
14968.2
14961.4
14953.4
14943.9
14932.7
14919.6
14904.3
14886.5
14865.9
14842.1
14814.9
14783.6
14748.1
14707.7
14662.1
14610.7
14553.1
14488.7
14417
14337.5
14249.7
14153.1
14047.3
13931.7
13805.9
13669.7
13522.6
13364.4
13194.9
13014
12821.6
12617.8
12402.6
12176.4
11939.4
11692.1
11434.8
11168.4
10893.3
10610.5
10320.7
10025
9724.23
9419.56
9112.06
8802.87
8493.14
8184.06
7876.8
7572.51
7272.33
6977.36
6688.66
6407.21
6133.95
5869.73
5615.33
5371.44
5138.66
4917.51
4708.4
4511.65
4327.5
4156.09
3997.48
3851.65
3718.5
3597.86
3489.5
3393.13
3308.42
3234.97
3172.37
3120.17
3077.91
3045.09
3021.22
3005.79
2998.29
2998.22
3005.08
3018.38
3037.63
3062.37
3092.15
3126.52
3165.06
3207.35
3253.01
3301.64
3352.88
3406.36
3461.75
3518.72
3576.93
3636.08
3695.86
3755.97
3816.13
3876.07
3935.5
3994.18
4051.85
4108.27
4163.21
4216.45
4267.78
4317
4363.93
4408.4
4450.25
4489.34
4525.55
4558.77
4588.9
4615.85
4639.58
4660.04
4677.19
4691.02
4701.53
4708.73
4712.67
4713.37
4710.91
4705.35
4696.77
4685.28
4670.97
4653.97
4634.4
4612.4
4588.09
4561.63
4533.12
4502.64
4470.22
4435.71
4398.66
4358.06
4311.79
4255.61
4181.22
4072.5
3898.33
3598.67
3057.6
2048.96
370.644
1516.01
15000
15000
15000
15000
15000
15000
15000
15000
15000
15000
15000
15000
15000
15000
15000
15000
15000
14999.9
14999.9
14999.9
14999.9
14999.8
14999.7
14999.6
14999.5
14999.4
14999.2
14998.9
14998.6
14998.2
14997.7
14997.1
14996.3
14995.4
14994.2
14992.7
14990.9
14988.7
14986
14982.7
14978.7
14974
14968.3
14961.5
14953.5
14944
14932.8
14919.8
14904.5
14886.7
14866.2
14842.4
14815.2
14784.1
14748.6
14708.3
14662.7
14611.4
14553.9
14489.6
14418
14338.6
14251
14154.5
14048.8
13933.3
13807.7
13671.6
13524.7
13366.7
13197.3
13016.6
12824.3
12620.6
12405.6
12179.5
11942.6
11695.3
11438.2
11171.7
10896.7
10613.8
10324
10028.2
9727.29
9422.43
9114.71
8805.24
8495.19
8185.74
7878.06
7573.29
7272.59
6977.05
6687.71
6405.59
6131.6
5866.61
5611.4
5366.65
5132.98
4910.9
4700.82
4503.08
4317.92
4145.48
3985.81
3838.92
3704.69
3582.96
3473.52
3376.06
3290.26
3215.73
3152.06
3098.81
3055.51
3021.67
2996.8
2980.39
2971.94
2970.94
2976.9
2989.34
3007.76
3031.71
3060.72
3094.37
3132.23
3173.89
3218.95
3267.04
3317.78
3370.81
3425.81
3482.43
3540.34
3599.25
3658.84
3718.83
3778.91
3838.82
3898.29
3957.06
4014.86
4071.46
4126.63
4180.15
4231.79
4281.36
4328.68
4373.57
4415.87
4455.43
4492.12
4525.84
4556.47
4583.94
4608.19
4629.16
4646.81
4661.13
4672.13
4679.8
4684.18
4685.32
4683.26
4678.08
4669.87
4658.72
4644.73
4628.02
4608.72
4586.97
4562.91
4536.66
4508.35
4478.07
4445.84
4411.5
4374.63
4334.22
4288.17
4232.26
4158.21
4049.94
3876.38
3577.48
3037.32
2034.29
368.602
1518.59
15000
15000
15000
15000
15000
15000
15000
15000
15000
15000
15000
15000
15000
15000
15000
15000
15000
14999.9
14999.9
14999.9
14999.9
14999.8
14999.7
14999.6
14999.5
14999.4
14999.2
14999
14998.6
14998.2
14997.8
14997.1
14996.4
14995.4
14994.2
14992.7
14990.9
14988.7
14986
14982.7
14978.8
14974
14968.4
14961.6
14953.6
14944.1
14933
14919.9
14904.7
14887
14866.4
14842.8
14815.6
14784.5
14749.1
14708.9
14663.4
14612.2
14554.7
14490.5
14419.1
14339.9
14252.3
14156
14050.4
13935.1
13809.7
13673.8
13527
13369.1
13200
13019.4
12827.3
12623.7
12408.9
12182.9
11946.1
11698.9
11441.8
11175.4
10900.4
10617.5
10327.6
10031.7
9730.67
9425.62
9117.66
8807.9
8497.51
8187.67
7879.53
7574.26
7272.99
6976.83
6686.82
6403.97
6129.2
5863.38
5607.29
5361.62
5126.99
4903.9
4692.79
4493.98
4307.71
4134.15
3973.34
3825.28
3689.88
3566.98
3456.35
3357.71
3270.72
3195.02
3130.19
3075.78
3031.34
2996.39
2970.42
2952.93
2943.44
2941.42
2946.4
2957.88
2975.38
2998.45
3026.62
3059.48
3096.58
3137.53
3181.93
3229.41
3279.59
3332.12
3386.67
3442.89
3500.47
3559.1
3618.47
3678.3
3738.28
3798.15
3857.64
3916.48
3974.41
4031.2
4086.61
4140.41
4192.38
4242.33
4290.06
4335.39
4378.16
4418.22
4455.44
4489.69
4520.88
4548.91
4573.71
4595.23
4613.44
4628.3
4639.82
4648
4652.88
4654.48
4652.87
4648.12
4640.31
4629.52
4615.89
4599.51
4580.51
4559.05
4535.24
4509.24
4481.16
4451.1
4419.07
4384.93
4348.26
4308.06
4262.24
4206.61
4132.91
4025.14
3852.34
3554.79
3017.87
2025.19
366.69
1526.01
15000
15000
15000
15000
15000
15000
15000
15000
15000
15000
15000
15000
15000
15000
15000
15000
15000
14999.9
14999.9
14999.9
14999.9
14999.8
14999.7
14999.6
14999.5
14999.4
14999.2
14999
14998.6
14998.3
14997.8
14997.1
14996.4
14995.4
14994.2
14992.7
14990.9
14988.7
14986
14982.8
14978.8
14974.1
14968.5
14961.7
14953.7
14944.3
14933.2
14920.1
14904.9
14887.2
14866.8
14843.2
14816
14785
14749.6
14709.5
14664.1
14613
14555.7
14491.6
14420.3
14341.2
14253.8
14157.6
14052.2
13937.1
13811.8
13676.1
13529.5
13371.8
13202.8
13022.4
12830.5
12627.1
12412.4
12186.6
11949.9
11702.8
11445.8
11179.4
10904.4
10621.5
10331.6
10035.5
9734.37
9429.13
9120.91
8810.85
8500.11
8189.85
7881.23
7575.43
7273.57
6976.75
6686.03
6402.41
6126.81
5860.11
5603.09
5356.44
5120.77
4896.61
4684.39
4484.44
4297
4122.23
3960.2
3810.9
3674.24
3550.07
3438.16
3338.25
3249.99
3173.02
3106.93
3051.28
3005.61
2969.45
2942.29
2923.64
2913
2909.88
2913.79
2924.23
2940.73
2962.83
2990.09
3022.07
3058.35
3098.52
3142.19
3188.99
3238.55
3290.52
3344.56
3400.34
3457.54
3515.85
3574.97
3634.6
3694.46
3754.27
3813.75
3872.65
3930.71
3987.68
4043.33
4097.41
4149.73
4200.06
4248.22
4294.02
4337.29
4377.89
4415.66
4450.48
4482.25
4510.87
4536.27
4558.39
4577.18
4592.63
4604.71
4613.45
4618.85
4620.97
4619.84
4615.55
4608.17
4597.8
4584.55
4568.53
4549.87
4528.71
4505.2
4479.47
4451.64
4421.82
4390.01
4356.1
4319.65
4279.68
4234.11
4178.77
4105.46
3998.25
3826.31
3530.15
2994.87
1997.6
364.471
1527.59
15000
15000
15000
15000
15000
15000
15000
15000
15000
15000
15000
15000
15000
15000
15000
15000
15000
14999.9
14999.9
14999.9
14999.9
14999.8
14999.7
14999.6
14999.5
14999.4
14999.2
14999
14998.6
14998.3
14997.8
14997.1
14996.4
14995.4
14994.2
14992.8
14991
14988.7
14986.1
14982.8
14978.9
14974.2
14968.5
14961.8
14953.8
14944.4
14933.3
14920.3
14905.2
14887.5
14867.1
14843.5
14816.5
14785.5
14750.2
14710.2
14664.9
14613.9
14556.7
14492.7
14421.5
14342.6
14255.3
14159.3
14054.1
13939.2
13814.1
13678.5
13532.1
13374.6
13205.8
13025.6
12833.9
12630.7
12416.2
12190.5
11954
11707
11450
11183.8
10908.8
10625.8
10335.9
10039.7
9738.39
9432.95
9124.48
8814.11
8502.99
8192.29
7883.19
7576.83
7274.35
6976.85
6685.38
6400.95
6124.48
5856.86
5598.85
5351.17
5114.42
4889.13
4675.73
4474.57
4285.89
4109.85
3946.52
3795.9
3657.91
3532.39
3419.13
3317.86
3228.25
3149.93
3082.49
3025.51
2978.53
2941.06
2912.63
2892.73
2880.88
2876.57
2879.31
2888.63
2904.05
2925.11
2951.38
2982.4
3017.78
3057.1
3099.98
3146.04
3194.91
3246.26
3299.74
3355.03
3411.8
3469.75
3528.57
3587.97
3647.67
3707.39
3766.86
3825.8
3883.97
3941.11
3996.99
4051.37
4104.03
4154.76
4203.36
4249.64
4293.43
4334.58
4372.92
4408.35
4440.73
4469.98
4496.01
4518.76
4538.18
4554.24
4566.93
4576.25
4582.23
4584.89
4584.29
4580.49
4573.59
4563.66
4550.82
4535.19
4516.89
4496.08
4472.88
4447.44
4419.89
4390.33
4358.78
4325.1
4288.89
4249.17
4203.87
4148.86
4075.98
3969.42
3798.57
3504.54
2974.37
1994.21
364.029
1526.74
15000
15000
15000
15000
15000
15000
15000
15000
15000
15000
15000
15000
15000
15000
15000
15000
15000
14999.9
14999.9
14999.9
14999.9
14999.8
14999.7
14999.6
14999.5
14999.4
14999.2
14999
14998.7
14998.3
14997.8
14997.2
14996.4
14995.4
14994.2
14992.8
14991
14988.8
14986.1
14982.9
14979
14974.3
14968.6
14961.9
14954
14944.6
14933.5
14920.6
14905.4
14887.8
14867.5
14844
14817
14786.1
14750.9
14710.9
14665.7
14614.8
14557.7
14493.9
14422.9
14344.1
14257
14161.2
14056.1
13941.3
13816.5
13681.1
13534.9
13377.7
13209.1
13029
12837.5
12634.5
12420.2
12194.7
11958.3
11711.4
11454.6
11188.4
10913.4
10630.5
10340.4
10044.2
9742.72
9437.08
9128.35
8817.66
8506.17
8195.03
7885.41
7578.48
7275.36
6977.15
6684.91
6399.63
6122.27
5853.68
5594.65
5345.89
5108.01
4881.54
4666.92
4464.49
4274.51
4097.13
3932.44
3780.44
3641.05
3514.11
3399.43
3296.72
3205.68
3125.93
3057.07
2998.68
2950.3
2911.46
2881.67
2860.45
2847.29
2841.71
2843.21
2851.33
2865.59
2885.54
2910.73
2940.74
2975.14
3013.54
3055.55
3100.81
3148.94
3199.61
3252.48
3307.21
3363.5
3421.04
3479.53
3538.67
3598.17
3657.77
3717.18
3776.15
3834.41
3891.71
3947.81
4002.47
4055.48
4106.6
4155.65
4202.43
4246.75
4288.47
4327.41
4363.46
4396.48
4426.38
4453.07
4476.48
4496.56
4513.27
4526.6
4536.55
4543.12
4546.37
4546.32
4543.06
4536.65
4527.2
4514.81
4499.6
4481.7
4461.25
4438.39
4413.28
4386.03
4356.75
4325.47
4292.06
4256.11
4216.65
4171.65
4116.99
4044.6
3938.8
3769.31
3478.02
2953.65
1981.16
364.217
1523.45
15000
15000
15000
15000
15000
15000
15000
15000
15000
15000
15000
15000
15000
15000
15000
15000
15000
14999.9
14999.9
14999.9
14999.9
14999.8
14999.7
14999.6
14999.5
14999.4
14999.2
14999
14998.7
14998.3
14997.8
14997.2
14996.4
14995.4
14994.3
14992.8
14991
14988.8
14986.2
14982.9
14979
14974.3
14968.7
14962
14954.1
14944.7
14933.7
14920.8
14905.7
14888.2
14867.8
14844.4
14817.5
14786.7
14751.6
14711.7
14666.6
14615.8
14558.9
14495.2
14424.3
14345.6
14258.7
14163.1
14058.2
13943.7
13819
13683.9
13537.9
13380.8
13212.5
13032.7
12841.4
12638.6
12424.4
12199.1
11962.9
11716.1
11459.4
11193.2
10918.3
10635.4
10345.3
10049
9747.37
9441.53
9132.54
8821.53
8509.65
8198.06
7887.93
7580.4
7276.62
6977.69
6684.65
6398.52
6120.22
5850.64
5590.55
5340.68
5101.63
4873.94
4658.05
4454.31
4262.98
4084.21
3918.11
3764.66
3623.8
3495.39
3379.22
3275.01
3182.47
3101.22
3030.88
2971
2921.16
2880.87
2849.65
2827.02
2812.48
2805.56
2805.75
2812.6
2825.63
2844.38
2868.43
2897.34
2930.7
2968.11
3009.2
3053.58
3100.91
3150.84
3203.03
3257.16
3312.92
3370
3428.1
3486.93
3546.21
3605.65
3664.98
3723.94
3782.27
3839.71
3896.02
3950.95
4004.29
4055.82
4105.31
4152.59
4197.45
4239.74
4279.3
4315.98
4349.67
4380.24
4407.62
4431.71
4452.48
4469.87
4483.87
4494.46
4501.68
4505.53
4506.08
4503.37
4497.5
4488.56
4476.64
4461.88
4444.4
4424.34
4401.86
4377.09
4350.17
4321.2
4290.2
4257.07
4221.4
4182.24
4137.56
4083.29
4011.44
3906.49
3738.52
3449.94
2929.92
1965.98
363.883
1537.64
15000
15000
15000
15000
15000
15000
15000
15000
15000
15000
15000
15000
15000
15000
15000
15000
15000
14999.9
14999.9
14999.9
14999.9
14999.8
14999.7
14999.7
14999.5
14999.4
14999.2
14999
14998.7
14998.3
14997.8
14997.2
14996.4
14995.5
14994.3
14992.8
14991
14988.9
14986.2
14983
14979.1
14974.4
14968.8
14962.2
14954.3
14944.9
14933.9
14921
14906
14888.5
14868.2
14844.9
14818
14787.3
14752.3
14712.5
14667.5
14616.9
14560
14496.5
14425.8
14347.3
14260.6
14165.1
14060.4
13946.1
13821.7
13686.7
13541
13384.2
13216
13036.5
12845.4
12642.8
12428.9
12203.7
11967.7
11721.1
11464.5
11198.4
10923.5
10640.6
10350.5
10054.1
9752.33
9446.29
9137.04
8825.71
8513.44
8201.4
7890.74
7582.62
7278.17
6978.5
6684.65
6397.64
6118.4
5847.79
5586.63
5335.61
5095.36
4866.42
4649.23
4444.13
4251.4
4071.21
3903.64
3748.7
3606.33
3476.39
3358.67
3252.91
3158.81
3076
3004.1
2942.69
2891.31
2849.5
2816.79
2792.68
2776.7
2768.36
2767.18
2772.68
2784.41
2801.9
2824.74
2852.48
2884.74
2921.1
2961.19
3004.64
3051.1
3100.22
3151.69
3205.16
3260.33
3316.9
3374.57
3433.05
3492.05
3551.3
3610.51
3669.44
3727.8
3785.36
3841.85
3897.05
3950.71
4002.61
4052.55
4100.32
4145.73
4188.6
4228.78
4266.11
4300.47
4331.73
4359.81
4384.62
4406.09
4424.18
4438.88
4450.15
4458.03
4462.52
4463.68
4461.57
4456.26
4447.85
4436.44
4422.15
4405.12
4385.48
4363.39
4338.99
4312.42
4283.78
4253.1
4220.28
4184.91
4146.05
4101.71
4047.87
3976.61
3872.62
3706.4
3421.46
2910.18
1969.31
365.431
1535.39
15000
15000
15000
15000
15000
15000
15000
15000
15000
15000
15000
15000
15000
15000
15000
15000
15000
14999.9
14999.9
14999.9
14999.9
14999.8
14999.7
14999.7
14999.5
14999.4
14999.2
14999
14998.7
14998.3
14997.8
14997.2
14996.4
14995.5
14994.3
14992.9
14991.1
14988.9
14986.2
14983
14979.2
14974.5
14968.9
14962.3
14954.4
14945.1
14934.1
14921.3
14906.3
14888.9
14868.6
14845.3
14818.6
14787.9
14753
14713.3
14668.5
14618
14561.3
14497.9
14427.3
14349
14262.5
14167.2
14062.8
13948.6
13824.4
13689.7
13544.2
13387.7
13219.8
13040.5
12849.6
12647.3
12433.5
12208.6
11972.7
11726.3
11469.8
11203.8
10929
10646.1
10356
10059.5
9757.59
9451.36
9141.86
8830.21
8517.56
8205.05
7893.87
7585.15
7280.03
6979.61
6684.94
6397.04
6116.83
5845.2
5582.93
5330.75
5089.28
4859.06
4640.53
4434.06
4239.9
4058.24
3889.17
3732.71
3588.78
3457.26
3337.95
3230.59
3134.88
3050.46
2976.95
2913.94
2860.97
2817.58
2783.31
2757.68
2740.19
2730.37
2727.74
2731.84
2742.2
2758.37
2779.93
2806.45
2837.52
2872.77
2911.8
2954.26
2999.79
3048.05
3098.73
3151.48
3206.02
3262.03
3319.21
3377.29
3435.97
3494.98
3554.04
3612.89
3671.26
3728.9
3785.56
3840.99
3894.95
3947.23
3997.6
4045.85
4091.8
4135.25
4176.05
4214.04
4249.07
4281.04
4309.83
4335.36
4357.56
4376.38
4391.78
4403.76
4412.32
4417.48
4419.28
4417.79
4413.07
4405.21
4394.34
4380.55
4363.99
4344.8
4323.12
4299.12
4272.92
4244.63
4214.28
4181.78
4146.73
4108.21
4064.24
4010.84
3940.21
3837.21
3672.71
3390.99
2886.02
1956.93
362.358
1536.51
15000
15000
15000
15000
15000
15000
15000
15000
15000
15000
15000
15000
15000
15000
15000
15000
15000
14999.9
14999.9
14999.9
14999.9
14999.8
14999.7
14999.7
14999.5
14999.4
14999.2
14999
14998.7
14998.3
14997.8
14997.2
14996.4
14995.5
14994.3
14992.9
14991.1
14988.9
14986.3
14983.1
14979.2
14974.6
14969
14962.4
14954.6
14945.3
14934.4
14921.6
14906.6
14889.2
14869.1
14845.9
14819.2
14788.6
14753.8
14714.2
14669.5
14619.1
14562.6
14499.3
14428.9
14350.8
14264.5
14169.4
14065.2
13951.3
13827.3
13692.9
13547.6
13391.3
13223.7
13044.6
12854
12651.9
12438.4
12213.7
11978
11731.7
11475.4
11209.5
10934.8
10651.9
10361.7
10065.2
9763.15
9456.74
9146.99
8835.03
8521.99
8209.03
7897.32
7588
7282.21
6981.04
6685.55
6396.74
6115.57
5842.89
5579.52
5326.16
5083.45
4851.93
4632.05
4424.18
4228.57
4045.42
3874.82
3716.8
3571.28
3438.15
3317.21
3208.21
3110.85
3024.78
2949.62
2884.95
2830.34
2785.33
2749.46
2722.23
2703.18
2691.83
2687.7
2690.33
2699.26
2714.05
2734.27
2759.5
2789.35
2823.41
2861.32
2902.73
2947.27
2994.61
3044.44
3096.42
3150.26
3205.66
3262.31
3319.94
3378.25
3436.98
3495.84
3554.58
3612.92
3670.61
3727.39
3783.03
3837.27
3889.89
3940.67
3989.4
4035.87
4079.9
4121.32
4159.96
4195.67
4228.35
4257.86
4284.12
4307.06
4326.61
4342.75
4355.45
4364.71
4370.56
4373.03
4372.17
4368.06
4360.79
4350.46
4337.2
4321.14
4302.42
4281.18
4257.59
4231.78
4203.86
4173.88
4141.72
4107.01
4068.83
4025.25
3972.32
3902.32
3800.25
3637.18
3357.25
2852.15
1909.96
357.824
1525.7
15000
15000
15000
15000
15000
15000
15000
15000
15000
15000
15000
15000
15000
15000
15000
15000
15000
14999.9
14999.9
14999.9
14999.9
14999.8
14999.7
14999.7
14999.5
14999.4
14999.2
14999
14998.7
14998.3
14997.8
14997.2
14996.5
14995.5
14994.3
14992.9
14991.1
14989
14986.4
14983.2
14979.3
14974.7
14969.2
14962.6
14954.8
14945.5
14934.6
14921.9
14906.9
14889.6
14869.5
14846.4
14819.8
14789.3
14754.6
14715.2
14670.6
14620.3
14563.9
14500.8
14430.6
14352.7
14266.6
14171.7
14067.7
13954.1
13830.3
13696.1
13551.2
13395.1
13227.7
13048.9
12858.6
12656.7
12443.5
12219
11983.5
11737.4
11481.2
11215.5
10940.8
10658
10367.8
10071.1
9769.01
9462.42
9152.43
8840.16
8526.74
8213.34
7901.11
7591.19
7284.73
6982.81
6686.49
6396.79
6114.64
5840.92
5576.43
5321.89
5077.94
4845.11
4623.87
4414.57
4217.5
4032.84
3860.7
3701.09
3553.96
3419.2
3296.6
3185.93
3086.88
2999.13
2922.28
2855.92
2799.64
2752.96
2715.43
2686.57
2665.91
2652.98
2647.29
2648.4
2655.86
2669.21
2688.03
2711.92
2740.47
2773.3
2810.04
2850.33
2893.82
2940.19
2989.11
3040.27
3093.36
3148.08
3204.15
3261.27
3319.17
3377.56
3436.18
3494.76
3553.03
3610.73
3667.61
3723.42
3777.91
3830.85
3882.02
3931.2
3978.18
4022.77
4064.79
4104.08
4140.47
4173.85
4204.09
4231.09
4254.77
4275.07
4291.95
4305.38
4315.37
4321.91
4325.06
4324.86
4321.38
4314.72
4304.97
4292.25
4276.71
4258.47
4237.7
4214.54
4189.15
4161.62
4132
4100.21
4065.85
4028.05
3984.86
3932.41
3863.04
3761.88
3600.16
3322.32
2820.89
1886.43
355.548
1514.66
15000
15000
15000
15000
15000
15000
15000
15000
15000
15000
15000
15000
15000
15000
15000
15000
15000
14999.9
14999.9
14999.9
14999.9
14999.8
14999.7
14999.7
14999.5
14999.4
14999.2
14999
14998.7
14998.3
14997.8
14997.2
14996.5
14995.5
14994.4
14992.9
14991.2
14989
14986.4
14983.2
14979.4
14974.8
14969.3
14962.7
14954.9
14945.7
14934.9
14922.1
14907.3
14890
14870
14846.9
14820.4
14790
14755.4
14716.1
14671.6
14621.5
14565.3
14502.4
14432.4
14354.6
14268.7
14174.1
14070.3
13956.9
13833.4
13699.5
13554.8
13399
13231.9
13053.4
12863.3
12661.8
12448.7
12224.5
11989.2
11743.3
11487.3
11221.7
10947.1
10664.3
10374.1
10077.4
9775.16
9468.39
9158.17
8845.6
8531.82
8217.98
7905.23
7594.73
7287.59
6984.93
6687.8
6397.2
6114.08
5839.31
5573.71
5317.99
5072.79
4838.65
4616.04
4405.32
4206.78
4020.6
3846.9
3685.7
3536.94
3400.52
3276.25
3163.89
3063.14
2973.67
2895.1
2827.03
2769.03
2720.66
2681.44
2650.91
2628.6
2614.04
2606.76
2606.3
2612.23
2624.09
2641.48
2663.97
2691.17
2722.71
2758.22
2797.34
2839.73
2885.07
2933.03
2983.3
3035.59
3089.58
3145.01
3201.58
3259.01
3317.02
3375.35
3433.72
3491.87
3549.54
3606.47
3662.42
3717.12
3770.36
3821.89
3871.49
3918.96
3964.09
4006.7
4046.61
4083.68
4117.75
4148.71
4176.44
4200.87
4221.92
4239.55
4253.73
4264.44
4271.7
4275.54
4276.02
4273.19
4267.14
4257.98
4245.83
4230.82
4213.1
4192.8
4170.1
4145.14
4118.02
4088.79
4057.37
4023.39
3985.97
3943.2
3891.24
3822.51
3722.26
3561.97
3286.67
2790.94
1872.44
353.481
1515.58
15000
15000
15000
15000
15000
15000
15000
15000
15000
15000
15000
15000
15000