<?xml version="1.0"?>
<VTKFile type="PolyData" version="0.1" byte_order="LittleEndian">
  <PolyData>
    <Piece NumberOfPoints="50000" NumberOfVerts="50000" NumberOfLines="0" NumberOfStrips="0" NumberOfPolys="0">
      <Points>
        <DataArray type="Float32" NumberOfComponents="3" format="ascii">
0.282712 0.00611035 0
-0.268182 0.00218958 0
0.273851 -0.0017766 0
0.286 -0.00141706 0
-0.233252 0.00459254 0
-0.19592 0.00168548 0
0.0940416 -0.0181605 0
-0.241148 0.000142423 0
0.0830226 -0.014132 0
-0.0188685 0.00648866 0
0.21476 -0.00881175 0
0.272889 0.00557788 0
-0.157044 0.00513436 0
-0.111377 -0.017101 0
-0.292955 0.00176728 0
0.2214 0.00874062 0
-0.0407841 -0.00136063 0
0.283633 0.00124014 0
0.107571 0.00112589 0
-0.268506 0.00278241 0
-0.281371 0.00406224 0
0.245737 0.00485735 0
-0.277665 0.00196481 0
0.276605 6.99507e-05 0
0.176149 -0.00887242 0
0.205915 0.00923274 0
-0.275256 -0.00517369 0
0.28407 -0.00231876 0
-0.196964 0.0167628 0
-0.289905 0.00658648 0
-0.218107 0.00869739 0
-0.202659 -0.0115082 0
0.281392 0.000649079 0
0.283183 -0.000660852 0
0.0539902 0.00375808 0
0.287979 -0.00107744 0
0.087475 0.00117985 0
-0.287539 0.0019592 0
-0.268935 -0.00353846 0
-0.298956 -0.00160294 0
0.207563 0.00940227 0
0.219452 0.00445932 0
-0.274654 -0.00149108 0
0.27961 0.000583132 0
0.289641 0.00101483 0
-0.282768 0.00635187 0
0.275533 0.00358969 0
0.141216 -0.0104482 0
0.271967 0.000328849 0
0.278451 0.000213098 0
0.116676 0.015333 0
-0.277268 -0.00055288 0
-0.192635 0.00685111 0
0.274855 0.00216566 0
-0.272937 0.00193111 0
-0.290906 0.00203901 0
0.283032 -0.000802203 0
0.114238 0.00835402 0
0.211576 0.00547644 0
0.292188 -0.00335676 0
0.238508 0.00350392 0
0.286068 0.00198761 0
0.0630656 -0.0225569 0
0.292115 -0.00113654 0
-0.0938637 0.0121333 0
-0.272133 0.00123839 0
0.277649 -0.000523525 0
0.285182 -0.000334311 0
0.294953 0.00298231 0
0.204225 0.000828036 0
-0.275287 0.00254258 0
0.277322 0.00278065 0
0.151648 0.00102492 0
0.154784 0.00497673 0
0.132046 0.00379873 0
-0.279401 -0.001532 0
0.242257 0.00896501 0
-0.265178 0.00330139 0
0.213734 0.00500653 0
-0.290268 0.00140582 0
-0.146039 -0.0235346 0
-0.284398 0.0033583 0
0.262217 0.00375617 0
-0.276486 0.000716136 0
0.291828 -0.00319685 0
-0.27713 0.00260362 0
0.29231 -0.00313161 0
-0.124556 -0.00576824 0
-0.120477 0.0163881 0
-0.279613 -0.00475983 0
0.274857 0.00485796 0
-0.273496 -0.000177797 0
0.276106 -0.00110219 0
-0.188324 0.0139837 0
-0.0282613 -0.0150935 0
-0.245954 0.00396135 0
0.275715 0.00630051 0
-0.281902 0.00255667 0
-0.297392 0.00542494 0
-0.294862 -0.000449486 0
-0.247131 -0.00504116 0
-0.274531 -0.00370138 0
0.294183 -0.000269125 0
-0.11869 -0.0142169 0
0.296264 -0.000176871 0
0.24241 0.00908731 0
0.178676 0.00491923 0
0.014376 0.00573852 0
0.272233 0.0033703 0
-0.278234 -0.0029892 0
-0.209587 0.0140251 0
-0.282213 0.00249222 0
-0.240734 0.00764208 0
204.771 296.213 0
0.185734 0.00536665 0
-0.278105 0.00277408 0
-0.288407 0.00336906 0
5.2543 7.18763 0
-0.280211 0.00142346 0
-0.0140676 -0.0058287 0
0.284177 -0.000788017 0
-0.270329 -0.00239607 0
0.191819 -0.00221896 0
-0.258328 0.00544938 0
0.278884 -0.000273084 0
0.27109 -0.000452937 0
0.089081 0.0169434 0
0.286407 0.00330412 0
-0.250418 -0.00455744 0
0.216198 -0.000418053 0
0.288145 -0.00200577 0
0.285809 -7.74063e-05 0
-0.296141 0.000790897 0
-0.247017 0.00308998 0
0.292765 -0.00104534 0
0.278276 -0.000504315 0
0.268278 -0.00174234 0
-0.0444503 0.00243362 0
0.22423 -0.00966726 0
0.218189 -0.00808822 0
0.224135 -0.00982796 0
0.265979 0.00695183 0
0.287576 -0.00215365 0
-0.0665392 -0.0095143 0
-0.287136 0.00496191 0
0.190825 -0.0154856 0
-0.183728 0.0142421 0
-0.283236 0.00165004 0
-0.202292 -0.0136343 0
-0.284141 0.00283171 0
0.216948 0.00539584 0
0.276419 0.0018155 0
-0.0861483 -0.00800677 0
0.225001 -0.0069734 0
0.22373 0.00607614 0
0.274141 0.00295242 0
0.187646 -0.00654577 0
-0.278468 0.00219548 0
-0.120063 -0.00393917 0
0.286773 -4.76297e-05 0
0.191599 -0.000928188 0
-0.25274 -0.00184566 0
-0.273601 0.00200949 0
-0.284484 0.00205439 0
-0.0734637 0.00721277 0
0.220848 -0.00420048 0
0.249622 -0.00369062 0
0.252803 0.00279471 0
0.21157 0.00577258 0
-0.116809 0.000635667 0
0.295328 -0.0032133 0
-0.272712 0.00241716 0
-0.0646336 -0.00389324 0
0.285504 0.00326088 0
-0.0519476 -0.00218725 0
-0.220081 0.0112183 0
-0.273451 0.00198044 0
-0.166212 -0.00748118 0
-0.277257 -0.0013996 0
-0.278486 -0.00438513 0
0.273671 0.000147666 0
-0.281654 0.00472134 0
-0.277367 0.00401959 0
0.28258 0.00395849 0
0.275616 -0.000432408 0
0.213009 -0.0118846 0
0.295958 -0.00218668 0
0.292786 0.000511536 0
0.283961 -0.00237776 0
0.0317753 0.0208592 0
0.288788 -0.00235548 0
0.233807 -0.00617124 0
-0.187771 -0.0126114 0
0.260205 0.0047037 0
-0.257635 0.00468225 0
0.273638 0.00143073 0
-0.229506 0.0084358 0
-0.244638 0.00393581 0
-0.274534 0.00292624 0
0.277119 0.00367806 0
-0.183296 0.0134772 0
0.292001 0.00210693 0
0.253313 -0.00361935 0
-0.0575734 -0.00474338 0
0.295796 -0.00328447 0
-0.270692 -0.00539436 0
0.0384567 0.0335834 0
0.117328 -0.00444372 0
-0.244955 0.00771473 0
-0.172526 -0.00689936 0
0.270952 0.000613144 0
-0.120278 -0.0144596 0
0.255263 -0.00235882 0
-0.236733 0.00793543 0
-0.162185 -0.010848 0
-0.284414 0.00446785 0
-0.28062 0.00561142 0
0.280845 2.2549e-06 0
-0.288361 -0.000772505 0
-0.0337927 0.0149125 0
-0.221779 0.00843289 0
-0.287837 0.00275717 0
-0.267134 -0.00426825 0
0.293335 -0.00186339 0
0.103829 0.0174853 0
-0.273623 0.00234199 0
0.294814 0.000998035 0
0.282937 -0.000381066 0
-0.243087 0.00705424 0
-0.286787 -0.000218822 0
-0.282239 -0.00249222 0
0.27529 0.00319215 0
0.143349 0.0167364 0
-0.043445 0.0107138 0
-0.292045 0.0033124 0
-0.251364 0.00434101 0
0.216304 -0.0120734 0
-0.221196 -0.00292665 0
-0.279046 0.00254211 0
0.171443 -0.00184854 0
0.289413 0.000174553 0
-0.256303 -0.00457171 0
-0.282312 0.00256614 0
-0.163105 -0.00961696 0
0.141389 0.0049948 0
0.252691 0.00313193 0
-0.266435 0.00514073 0
0.283165 -0.000379766 0
0.291425 0.00206564 0
0.167122 0.00899722 0
0.174368 0.00327096 0
-0.26538 0.00375282 0
0.273509 -0.00186051 0
-0.125467 -0.00638383 0
-0.256691 0.00591059 0
0.273958 2.94781e-06 0
-0.248797 0.00576934 0
0.242362 0.00650341 0
0.10508 0.0165959 0
0.151719 0.000402142 0
0.291321 0.000842622 0
-0.265283 0.00363169 0
0.053321 -0.00557563 0
0.0267543 -0.0095813 0
-0.189177 0.00260208 0
-0.278742 0.000940908 0
-0.274435 0.002251 0
-0.272606 -0.000788286 0
0.280667 -0.000518969 0
0.278447 -0.000365106 0
0.28684 -0.000468994 0
-0.281266 -0.00182003 0
0.184047 0.0023577 0
0.0152466 0.00888513 0
-0.293673 0.00372782 0
-0.285521 0.00180534 0
0.27258 -7.64433e-05 0
-0.2729 0.00231034 0
0.270534 0.00476188 0
-0.276936 -0.000826608 0
-0.268435 9.89609e-05 0
-0.124093 -0.0158435 0
-0.281312 0.00192365 0
0.266104 -0.00133697 0
-0.238948 0.00771732 0
-0.269194 -0.00205517 0
-0.106699 0.0141275 0
-0.280519 0.00248732 0
-0.28489 0.00286447 0
0.240028 -0.00196965 0
-0.0998988 0.00495442 0
0.280265 -0.000460953 0
0.286403 -0.00184037 0
0.182532 0.00993187 0
0.290836 0.00252203 0
0.276252 0.00455271 0
0.2897 0.00315589 0
-0.192561 0.0165156 0
-0.263471 0.00163724 0
-0.292845 0.000851565 0
0.29713 0.000837449 0
-0.0394762 0.00536976 0
0.279309 -0.00103975 0
0.272657 0.0025087 0
0.287591 -0.000327774 0
0.0493679 0.00873655 0
-0.14757 0.017699 0
0.24212 0.00396295 0
-0.0337071 0.000481463 0
-0.137476 0.00674301 0
-0.230248 0.00828387 0
0.280235 0.00486582 0
-0.203808 0.0103749 0
0.259251 -0.00356039 0
0.213686 -0.00312382 0
-0.291963 0.00459659 0
0.227844 -0.0100914 0
0.294127 -0.00344461 0
0.262987 -0.00191523 0
0.281149 0.0053907 0
-0.284836 0.00396232 0
-0.0622948 0.0107281 0
0.286748 0.00165142 0
0.285477 -0.000463622 0
0.131671 0.0175325 0
-0.271852 -0.000113914 0
-0.266592 0.00372876 0
0.29386 0.000544856 0
-0.272458 -0.00191169 0
0.283532 0.00194556 0
0.285492 -0.00150853 0
0.136659 -0.0161728 0
0.273397 0.0026605 0
-0.279733 0.00252701 0
-0.239203 -0.000221046 0
-0.160586 -0.0015658 0
0.0227545 -0.00520336 0
0.0341638 -0.0202834 0
-0.256584 0.0025665 0
0.127125 -0.0179808 0
-0.029698 0.028511 0
-0.288881 0.00446655 0
-0.206269 0.00974086 0
-0.281971 0.0033251 0
-0.116655 -0.00928346 0
0.28539 0.00501686 0
-0.200269 0.0109156 0
-0.285478 0.000172788 0
-44.5443 184.247 0
0.284723 -0.00346899 0
0.283915 -0.000572 0
-0.232436 0.0101098 0
0.276121 0.00228574 0
0.261899 -0.000500146 0
-400.745 -716.668 0
0.0871016 0.0104419 0
-0.282531 0.00281806 0
-0.234749 -0.00151047 0
0.281845 0.00268247 0
2.85016 -5.87078 0
0.266742 0.0037001 0
-0.27655 -0.00399308 0
-0.176385 0.000400733 0
-0.280854 -0.00208088 0
-0.286285 0.00493197 0
0.27977 -0.000497366 0
-0.290622 -0.000778955 0
-0.251938 0.00663185 0
0.219471 0.00899909 0
-0.273894 0.000266651 0
-0.228169 0.0101204 0
-0.253216 0.00596249 0
0.282628 0.00316369 0
0.25486 -0.00466457 0
-0.16847 0.0135335 0
0.290646 -0.00123794 0
-0.282694 -0.00373031 0
-0.262765 -0.0023133 0
-0.285724 0.00111033 0
0.0248697 -0.0215114 0
-0.27511 -0.00351669 0
0.278922 0.00319898 0
-0.28027 0.00280405 0
-0.278856 0.00161944 0
-0.0685212 0.0107951 0
0.182536 0.00979905 0
-0.0909117 0.0256909 0
0.0601671 0.0146501 0
-0.282876 0.00296638 0
-0.0509619 0.00276195 0
-0.28343 -0.00044831 0
-0.284854 0.00407365 0
0.272553 -0.00385408 0
0.239973 0.00681606 0
-0.266392 0.00472052 0
0.253391 0.00364349 0
0.251542 0.00117837 0
-0.271771 0.00237503 0
-0.149868 -0.0047176 0
0.198947 -0.0118182 0
-0.272181 0.000817537 0
0.240982 -0.00599799 0
0.110458 -0.00312276 0
-0.279609 -0.000456578 0
0.261802 -0.000196027 0
0.275398 -0.00139258 0
0.279782 -0.00306436 0
0.284995 -0.000853797 0
0.289785 0.000258941 0
0.274773 0.00506354 0
-0.281534 0.00217645 0
0.202617 0.00700307 0
-0.232443 -0.00328558 0
0.133042 0.0189204 0
-0.265044 0.00214914 0
-0.0945044 -0.00366277 0
-0.219678 0.00846551 0
0.0804588 -0.00955601 0
-0.287379 0.00297527 0
0.275056 -0.000509189 0
-0.0772185 0.0209083 0
0.0985199 0.0111303 0
-0.291234 0.00260768 0
0.277107 0.00155949 0
0.285552 -0.000236612 0
0.272623 0.00627341 0
[...]
      <PointData Scalars="T">
        <DataArray type="Float32" Name="T" format="ascii" NumberOfComponents="1">
311.806
394.584
311.642
311.642
394.584
518.897
311.642
566.007
311.642
394.584
311.642
311.806
394.584
405.976
529.846
311.806
405.976
301.685
301.334
394.584
394.584
311.806
394.584
308.222
311.642
311.806
405.976
311.642
394.584
394.584
394.584
405.976
301.564
311.642
311.806
311.642
301.448
394.584
405.976
405.976
311.806
311.806
405.976
301.973
300.897
394.584
311.806
311.642
305.437
306.467
311.806
405.976
394.584
311.806
394.584
394.584
311.642
311.806
311.806
311.642
311.806
311.806
311.642
311.642
394.584
571.966
311.642
311.642
311.806
301.108
394.584
311.806
300.791
311.806
311.806
405.976
311.806
394.584
311.806
529.767
405.976
394.584
311.806
524.102
311.642
394.584
311.642
405.976
394.584
405.976
311.806
405.976
311.642
394.584
405.976
394.584
311.806
394.584
394.584
405.976
405.976
405.976
311.642
405.976
311.642
311.806
311.806
311.806
311.806
405.976
394.584
394.584
394.584
311.806
311.806
394.584
394.584
311.806
533.552
405.976
311.642
405.976
311.642
394.584
311.642
311.642
311.806
311.806
405.976
311.642
311.642
311.642
572.272
394.584
311.642
311.642
311.642
394.584
311.642
311.642
311.642
311.806
311.642
405.976
394.584
311.642
394.584
519.582
405.976
394.584
311.806
309.936
405.976
311.642
311.806
311.806
311.642
394.584
405.976
311.642
311.642
405.976
394.584
394.584
394.584
311.642
311.642
311.806
311.806
528.739
311.642
394.584
405.976
311.806
405.976
394.584
394.584
405.976
405.976
405.976
308.051
394.584
394.584
311.806
311.642
311.642
311.642
302.609
311.642
311.806
311.642
311.642
405.976
311.806
394.584
302.729
394.584
394.584
394.584
311.806
394.584
311.806
311.642
405.976
311.642
405.976
311.806
311.642
394.584
405.976
301.766
405.976
311.642
394.584
405.976
394.584
394.584
311.642
405.976
394.584
394.584
394.584
405.976
311.642
311.806
394.584
300.818
311.642
394.584
405.976
405.976
311.806
311.806
394.584
394.584
394.584
311.642
405.976
394.584
311.642
307.532
405.976
394.584
405.976
311.806
311.806
394.584
311.642
311.806
311.806
311.806
394.584
311.642
405.976
394.584
311.642
394.584
311.806
311.806
303.581
300.951
394.584
311.642
311.642
394.584
560.049
394.584
405.976
311.642
311.642
311.642
405.976
311.806
311.806
394.584
533.157
311.642
394.584
311.806
405.976
558.246
405.976
394.584
311.642
394.584
405.976
394.584
394.584
394.584
311.642
394.584
311.642
311.642
311.806
311.806
311.806
311.806
394.584
519.882
545.064
301.013
394.584
311.642
311.806
311.642
311.806
394.584
311.806
511.912
394.584
394.584
311.806
394.584
311.642
311.642
394.584
311.642
311.642
311.642
311.806
394.584
394.584
306.21
311.642
311.806
405.976
394.584
302.268
405.976
311.806
311.642
311.642
311.806
394.584
405.976
405.976
311.642
311.642
394.584
311.642
394.584
394.584
394.584
394.584
405.976
311.806
394.584
571.08
394.584
311.642
311.642
394.584
311.806
311.642
405.976
311.806
394.584
405.976
311.806
311.642
311.806
405.976
529.43
405.976
394.584
311.642
405.976
394.584
311.806
547.003
394.584
394.584
311.806
311.642
394.584
311.642
405.976
405.976
570.527
311.642
405.976
311.806
394.584
519.078
394.584
311.806
394.584
311.806
394.584
394.584
405.976
394.584
311.642
311.806
394.584
311.806
301.448
394.584
405.976
311.642
547.057
311.642
311.642
405.976
311.642
311.642
311.642
311.642
305.617
311.806
394.584
311.806
405.976
311.806
394.584
405.976
394.584
311.642
394.584
311.642
394.584
311.806
394.584
304.514
311.642
311.806
311.642
394.584
394.584
311.642
394.584
311.806
394.584
311.806
557.222
405.976
394.584
394.584
311.806
301.573
394.584
311.642
513.373
405.976
405.976
394.584
405.976
311.806
311.642
405.976
311.351
405.976
405.976
311.642
311.642
405.976
394.584
526.667
405.976
301.241
405.976
303.189
394.584
405.976
311.642
311.806
405.976
405.976
394.584
394.584
311.806
525.991
311.642
311.642
311.806
394.584
394.584
394.584
308.205
311.806
534.264
405.976
405.976
394.584
301.473
311.806
311.642
300.809
394.584
311.806
311.806
300.798
394.584
311.806
311.642
405.976
311.642
394.584
394.584
394.584
405.976
405.976
405.976
405.976
405.976
311.642
311.642
311.642
311.806
311.642
311.806
311.806
405.976
311.806
394.584
311.642
311.806
394.584
311.806
394.584
531.231
394.584
528.642
311.806
311.642
311.806
311.642
311.642
311.642
394.584
311.806
311.806
511.912
311.806
519.76
394.584
405.976
311.642
311.642
394.584
394.584
405.976
405.976
405.976
311.806
311.806
305.663
311.806
405.976
394.584
311.806
394.584
301.696
311.806
405.976
394.584
311.642
394.584
311.806
311.806
405.976
311.806
405.976
311.642
564.399
394.584
301.423
311.642
405.976
405.976
540.275
394.584
394.584
311.806
311.642
311.642
301.108
311.806
405.976
527.871
405.976
405.976
394.584
311.806
311.642
394.584
311.806
405.976
300.866
311.806
303.431
394.584
311.806
405.976
567.775
311.806
311.642
405.976
311.806
394.584
311.642
311.642
311.806
311.642
405.976
405.976
394.584
597.691
311.806
405.976
311.642
405.976
405.976
311.806
311.642
405.976
405.976
394.584
394.584
311.642
311.642
394.584
559.326
405.976
311.806
311.642
394.584
394.584
311.642
311.642
311.806
311.806
394.584
405.976
405.976
405.976
405.976
311.806
394.584
311.806
311.806
405.976
394.584
311.642
311.642
405.976
394.584
311.642
405.976
405.976
394.584
311.642
405.976
510.807
311.806
394.584
394.584
311.642
311.806
394.584
311.806
311.642
519.301
311.806
311.642
394.584
394.584
311.642
311.642
311.642
311.806
311.806
405.976
405.976
394.584
394.584
311.806
394.584
405.976
301.41
311.806
394.584
515.678
394.584
311.642
311.806
311.806
311.806
394.584
311.642
311.642
551.073
394.584
311.806
311.642
311.806
311.806
311.351
394.584
311.806
311.806
311.642
394.584
311.806
394.584
311.642
311.806
311.642
311.806
311.642
394.584
305.524
547.2
311.806
394.584
394.584
394.584
311.642
405.976
311.806
394.584
311.642
311.806
405.976
311.642
547.057
405.976
571.287
512.589
394.584
394.584
311.642
311.642
311.642
311.642
311.642
525.079
311.806
394.584
562.255
311.642
311.642
394.584
301.241
394.584
311.806
394.584
394.584
394.584
405.976
405.976
301.41
394.584
311.806
394.584
405.976
394.584
405.976
405.976
311.642
311.806
311.642
394.584
405.976
394.584
519.823
405.976
394.584
405.976
311.806
394.584
405.976
311.642
311.642
311.642
532.82
394.584
405.976
311.806
405.976
301.473
394.584
405.976
405.976
311.806
311.642
311.806
302.506
311.642
394.584
394.584
311.642
394.584
311.806
531.642
311.806
394.584
405.976
311.806
394.584
302.177
394.584
394.584
311.642
301.423
405.976
311.806
311.642
301.905
311.806
394.584
405.976
560.078
311.806
394.584
302.337
311.806
311.642
311.642
405.976
394.584
303.015
394.584
394.584
311.642
311.642
311.806
311.642
394.584
405.976
311.806
394.584
310.2
311.806
394.584
394.584
311.806
559.536
311.642
311.642
394.584
394.584
311.642
301.41
394.584
405.976
405.976
311.806
302.12
527.871
394.584
394.584
526.802
405.976
311.642
394.584
311.642
531.478
311.642
311.642
529.8
311.642
515.678
311.806
311.642
394.584
405.976
311.806
311.642
311.806
311.806
311.806
311.806
394.584
311.806
311.642
558.204
311.642
311.806
394.584
307.585
311.642
311.806
394.584
394.584
405.976
311.642
405.976
311.642
405.976
394.584
394.584
311.806
405.976
562.2
405.976
311.642
559.3
394.584
311.642
311.806
405.976
405.976
311.642
394.584
311.642
311.642
405.976
311.806
405.976
309.202
311.642
311.806
311.642
311.806
311.806
394.584
309.537
311.642
311.642
394.584
311.642
405.976
394.584
405.976
311.642
311.806
394.584
405.976
394.584
311.642
394.584
394.584
307.901
311.642
311.806
311.806
394.584
512.589
311.642
394.584
311.806
394.584
405.976
302.337
405.976
311.642
394.584
405.976
394.584
394.584
394.584
529.534
405.976
394.584
394.584
311.806
544.373
311.642
311.642
311.642
311.642
311.806
394.584
311.642
394.584
311.806
394.584
311.806
307.002
405.976
311.806
394.584
311.642
311.806
311.642
405.976
311.642
394.584
301.226
405.976
405.976
311.806
405.976
394.584
394.584
405.976
311.642
311.806
311.806
311.806
405.976
311.642
405.976
311.642
302.643
311.806
311.806
311.806
311.642
311.642
405.976
311.806
311.806
405.976
394.584
311.642
394.584
300.791
394.584
405.976
394.584
522.721
405.976
394.584
311.806
405.976
311.806
531.478
311.642
394.584
311.806
394.584
394.584
311.806
311.806
394.584
311.642
311.806
307.138
301.696
405.976
394.584
555.877
579.42
311.642
394.584
303.961
394.584
394.584
311.642
311.642
394.584
311.806
311.642
306.467
311.642
394.584
308.051
311.806
394.584
394.584
394.584
405.976
394.584
311.642
394.584
311.642
405.976
304.399
311.642
311.806
394.584
405.976
405.976
394.584
311.642
311.806
405.976
311.642
301.334
405.976
405.976
311.642
394.584
301.685
311.642
311.806
405.976
394.584
394.584
394.584
311.806
568.243
311.806
519.078
394.584
311.642
311.806
311.806
311.642
311.806
558.246
546.989
405.976
394.584
311.642
311.806
311.806
311.806
311.806
311.806
405.976
394.584
394.584
394.584
405.976
394.584
394.584
304.126
311.642
311.642
311.642
311.642
394.584
311.642
394.584
301.564
405.976
394.584
311.806
394.584
567.057
311.642
570.527
311.642
311.642
311.642
311.642
311.806
311.806
311.642
311.806
405.976
300.866
519.582
311.806
311.806
308.07
405.976
311.642
405.976
311.806
311.806
311.806
311.806
394.584
311.642
394.584
311.806
308.07
311.642
563.904
563.432
572.272
311.642
311.642
405.976
311.806
394.584
311.806
311.642
405.976
394.584
538.688
311.642
311.806
394.584
311.642
394.584
311.806
394.584
394.584
512.745
394.584
311.642
311.642
405.976
394.584
394.584
394.584
311.642
405.976
311.806
394.584
311.806
311.806
394.584
394.584
311.806
394.584
311.642
311.642
311.642
394.584
301.834
311.642
405.976
394.584
311.642
394.584
311.642
394.584
394.584
311.642
405.976
405.976
308.205
308.123
311.806
311.642
311.806
405.976
311.307
311.806
394.584
394.584
311.642
394.584
311.806
300.791
525.991
394.584
311.806
563.904
526.213
301.214
311.642
568.836
527.188
311.642
394.584
539.418
405.976
405.976
394.584
311.642
311.642
394.584
394.584
311.642
405.976
311.642
311.806
311.806
394.584
394.584
311.642
526.213
311.806
394.584
311.806
311.642
519.189
311.642
311.642
405.976
394.584
405.976
405.976
394.584
394.584
394.584
394.584
311.806
311.642
311.642
394.584
311.642
394.584
394.584
311.642
394.584
394.584
311.806
394.584
405.976
311.642
405.976
405.976
311.806
394.584
311.806
309.202
311.642
311.642
394.584
311.806
302.137
394.584
394.584
311.806
394.584
394.584
303.189
311.642
311.642
405.976
311.642
394.584
302.457
311.642
556.866
394.584
394.584
311.642
307.334
394.584
394.584
394.584
405.976
308.836
405.976
311.642
405.976
405.976
306.662
311.806
311.642
405.976
311.806
311.642
311.806
530.941
311.642
551.073
562.255
394.584
394.584
525.86
405.976
405.976
311.806
311.806
405.976
394.584
394.584
311.642
394.584
394.584
394.584
405.976
405.976
311.642
311.642
311.806
394.584
311.806
311.806
311.642
405.976
311.642
303.913
311.806
301.31
311.806
394.584
547.536
555.571
394.584
525.801
311.642
405.976
405.976
311.806
394.584
405.976
394.584
522.438
394.584
394.584
571.287
311.642
405.976
405.976
394.584
405.976
394.584
311.642
405.976
394.584
311.642
311.642
311.642
405.976
405.976
394.584
311.806
394.584
405.976
303.161
394.584
394.584
394.584
311.806
394.584
311.806
311.806
311.642
405.976
311.642
302.097
405.976
558.89
311.642
311.806
405.976
394.584
394.584
311.642
394.584
405.976
394.584
311.806
311.806
311.642
311.806
405.976
394.584
394.584
311.642
311.806
394.584
311.806
311.806
556.067
405.976
405.976
311.806
311.806
311.806
394.584
311.806
555.571
311.806
394.584
394.584
519.189
311.806
311.642
311.642
311.642
405.976
311.642
311.642
530.941
394.584
311.806
311.806
305.731
394.584
311.642
394.584
311.642
311.806
311.642
301.334
405.976
394.584
563.487
311.806
311.642
311.642
311.642
394.584
311.806
394.584
311.351
308.234
311.806
405.976
304.669
394.584
311.806
311.806
311.642
405.976
311.642
311.642
311.642
311.642
311.806
546.989
311.806
311.642
394.584
405.976
560.406
517.188
394.584
394.584
519.76
394.584
311.642
311.642
405.976
311.806
394.584
532.82
394.584
311.642
405.976
405.976
311.806
311.642
311.806
311.806
311.806
519.078
311.806
311.806
311.642
311.806
394.584
302.066
540.365
405.976
405.976
311.642
405.976
394.584
394.584
394.584
394.584
394.584
572.272
394.584
311.806
311.806
311.642
394.584
311.642
394.584
311.642
311.806
394.584
301.122
305.432
311.806
311.806
311.642
526.667
311.642
301.148
394.584
311.806
524.11
311.806
394.584
311.642
307.334
394.584
394.584
405.976
394.584
405.976
394.584
311.642
311.642
311.642
405.976
311.806
394.584
311.642
405.976
311.806
394.584
394.584
405.976
394.584
307.933
311.642
405.976
311.642
311.806
405.976
394.584
307.532
311.806
394.584
311.806
311.806
311.642
311.642
311.642
405.976
394.584
405.976
405.976
311.806
311.642
311.806
301.43
311.642
394.584
561.028
563.487
311.642
301.093
311.642
311.642
394.584
311.642
311.806
311.806
311.806
308.205
311.806
394.584
394.584
394.584
311.806
394.584
394.584
311.642
300.951
308.195
300.759
394.584
311.806
394.584
311.806
311.806
394.584
311.642
405.976
405.976
405.976
311.642
405.976
405.976
527.188
405.976
405.976
394.584
405.976
405.976
530.941
311.642
394.584
394.584
311.806
311.806
311.642
311.642
311.806
394.584
394.584
311.806
405.976
405.976
311.806
394.584
405.976
305.912
311.806
311.642
394.584
394.584
311.642
394.584
394.584
311.642
405.976
301.423
305.455
311.642
311.642
394.584
394.584
394.584
311.642
394.584
394.584
394.584
394.584
405.976
394.584
311.806
405.976
394.584
394.584
311.806
394.584
311.642
394.584
526.667
311.806
394.584
405.976
311.642
311.642
405.976
558.204
559.3
307.585
526.213
394.584
524.102
405.976
394.584
405.976
405.976
311.806
311.642
405.976
394.584
311.642
311.806
311.642
405.976
311.642
311.642
311.806
311.806
394.584
405.976
394.584
394.584
307.019
512.589
311.806
394.584
405.976
405.976
311.642
300.763
405.976
394.584
311.642
530.768
311.806
311.642
311.806
311.642
311.642
311.806
394.584
405.976
405.976
394.584
311.642
311.642
405.976
305.995
527.871
394.584
394.584
405.976
394.584
311.806
311.642
394.584
405.976
310.557
311.806
394.584
311.642
394.584
311.642
311.642
311.642
394.584
311.806
311.642
311.642
311.806
405.976
300.763
405.976
405.976
311.642
311.642
405.976
525.801
311.806
311.642
311.642
405.976
405.976
394.584
311.806
311.806
405.976
311.806
311.642
552.126
311.642
311.806
394.584
405.976
571.287
394.584
394.584
533.541
394.584
394.584
311.806
405.976
300.942
405.976
405.976
311.806
519.882
394.584
394.584
405.976
311.642
394.584
405.976
311.806
394.584
528.642
394.584
311.806
311.642
311.806
311.642
405.976
405.976
394.584
405.976
394.584
394.584
405.976
394.584
394.584
311.642
311.806
311.806
302.951
301.458
405.976
556.067
311.806
311.806
405.976
405.976
394.584
311.642
519.882
394.584
394.584
311.642
394.584
311.642
311.806
301.31
311.642
394.584
311.806
394.584
394.584
405.976
311.806
394.584
311.806
301.573
306.694
307.334
394.584
405.976
304.126
308.125
301.473
311.806
311.806
311.642
405.976
311.642
311.642
394.584
562.931
394.584
311.642
311.642
311.642
394.584
519.078
394.584
311.806
394.584
311.806
511.269
304.365
311.642
311.642
311.642
394.584
311.806
405.976
303.913
311.642
311.806
394.584
405.976
405.976
394.584
405.976
405.976
305.108
394.584
562.255
311.642
311.642
310.2
394.584
394.584
405.976
405.976
311.806
394.584
405.976
405.976
311.806
394.584
558.89
311.642
394.584
311.806
405.976
311.642
394.584
405.976
311.806
394.584
311.642
405.976
394.584
311.642
311.806
405.976
394.584
394.584
311.642
394.584
405.976
311.642
566.007
311.806
311.806
564.399
311.806
311.642
311.642
311.642
302.271
405.976
311.642
311.806
549.122
311.806
394.584
405.976
405.976
394.584
405.976
311.642
405.976
311.806
311.806
311.806
311.642
311.806
311.642
311.642
311.806
405.976
311.806
311.806
405.976
311.642
311.642
311.806
300.951
405.976
311.642
311.642
405.976
311.806
405.976
405.976
311.642
394.584
394.584
311.642
394.584
311.327
302.271
311.806
311.642
311.642
311.642
311.642
311.642
301.226
394.584
405.976
567.775
311.806
303.961
394.584
311.642
311.642
562.255
311.642
311.806
311.642
311.642
311.642
394.584
311.806
311.642
394.584
311.642
405.976
311.806
311.642
311.806
394.584
405.976
311.806
394.584
394.584
311.642
311.642
311.642
394.584
311.806
300.962
554.222
394.584
311.642
311.642
311.806
405.976
405.976
405.976
311.642
311.806
311.642
405.976
394.584
311.642
303.707
311.806
311.806
311.642
394.584
311.806
405.976
311.806
394.584
394.584
311.307
311.806
394.584
513.373
311.806
405.976
550.911
530.274
551.073
394.584
394.584
405.976
311.642
311.642
405.976
311.806
405.976
311.806
311.642
405.976
311.642
311.642
394.584
311.642
531.912
511.912
394.584
394.584
311.806
311.806
311.642
405.976
311.642
405.976
311.642
311.642
394.584
405.976
394.584
303.306
302.097
311.806
306.218
405.976
311.642
394.584
311.642
394.584
311.642
394.584
394.584
311.806
311.642
405.976
311.642
394.584
311.806
394.584
405.976
405.976
405.976
311.642
394.584
405.976
512.745
405.976
405.976
311.642
394.584
311.642
311.642
311.806
311.642
311.806
311.642
394.584
405.976
513.373
311.806
311.806
394.584
311.642
308.234
311.642
311.642
394.584
394.584
311.806
311.806
311.642
311.642
547.057
300.897
405.976
394.584
394.584
311.642
394.584
301.245
405.976
311.642
394.584
405.976
311.806
394.584
311.806
311.642
311.806
562.502
405.976
304.864
311.642
311.642
311.642
311.806
405.976
311.806
306.218
394.584
311.642
311.806
311.642
405.976
311.806
311.806
405.976
519.582
512.745
305.034
311.642
510.807
394.584
567.057
405.976
311.642
311.642
394.584
405.976
311.642
405.976
394.584
394.584
311.642
311.806
405.976
560.164
405.976
311.642
405.976
405.976
311.806
311.806
311.806
311.806
394.584
405.976
405.976
405.976
311.806
311.642
311.806
311.642
394.584
394.584
394.584
394.584
405.976
394.584
512.589
302.39
310.557
311.642
311.642
405.976
405.976
394.584
394.584
394.584
311.642
524.102
311.806
311.806
311.642
405.976
405.976
311.642
311.806
311.642
405.976
311.806
394.584
394.584
311.642
311.642
311.642
311.642
311.806
311.806
311.806
311.806
311.642
311.642
527.188
311.642
394.584
311.806
394.584
394.584
519.189
311.642
311.642
563.049
311.806
394.584
405.976
394.584
405.976
311.642
394.584
529.8
311.642
300.922
405.976
394.584
394.584
531.786
311.642
311.642
311.642
405.976
301.122
303.431
311.642
565.901
563.885
311.642
308.666
311.806
311.806
311.642
311.806
405.976
311.642
300.759
311.806
394.584
394.584
394.584
394.584
394.584
311.642
563.885
557.846
394.584
394.584
394.584
306.533
305.455
311.642
394.584
311.642
311.642
311.642
311.642
311.806
394.584
394.584
405.976
311.642
510.807
311.642
405.976
311.642
526.802
518.855
394.584
311.806
405.976
405.976
311.806
405.976
302.608
394.584
305.455
311.806
311.806
562.931
311.806
394.584
405.976
311.642
394.584
311.642
311.642
311.806
311.806
311.806
394.584
311.806
547.536
405.976
301.253
405.976
405.976
540.275
311.642
394.584
525.161
394.584
311.642
405.976
394.584
311.806
311.642
311.642
405.976
394.584
300.772
394.584
394.584
311.806
405.976
394.584
405.976
394.584
405.976
394.584
394.584
302.337
311.806
394.584
405.976
311.642
311.642
405.976
394.584
311.806
303.707
311.806
394.584
394.584
311.642
405.976
394.584
405.976
301.458
311.642
311.642
306.694
311.806
311.806
311.806
311.642
394.584
405.976
530.274
526.667
405.976
394.584
311.806
394.584
311.806
303.961
394.584
311.642
311.806
405.976
405.976
302.097
394.584
394.584
311.806
394.584
532.82
394.584
394.584
405.976
394.584
405.976
394.584
394.584
311.806
405.976
405.976
394.584
405.976
311.806
303.36
311.806
311.806
394.584
405.976
311.642
394.584
394.584
405.976
311.642
311.642
394.584
405.976
311.806
311.642
405.976
394.584
405.976
405.976
394.584
311.642
394.584
405.976
311.806
311.806
394.584
405.976
311.642
311.642
394.584
405.976
394.584
394.584
570.527
311.642
311.806
311.806
311.806
311.806
394.584
311.642
311.642
311.806
394.584
405.976
394.584
405.976
311.806
311.642
311.642