<?xml version="1.0"?>
<VTKFile type="ImageData" version="0.1" byte_order="LittleEndian">
  <ImageData Origin="0 0 0" Spacing="1e-05 1e-05 1e-05" WholeExtent="0 191 0 191 0 0">
    <Piece Extent="0 191 0 191 0 0">
      <CellData Scalars="T">
        <DataArray type="Float32" Name="T" format="ascii" NumberOfComponents="1">
14243.6
15000
14999.8
14999.5
14999.2
14999
14998.9
14998.9
14999
14999.1
14999.2
14999.3
14999.3
14999.3
14999.1
14998.9
14998.5
14998.1
14997.6
14997
14996.3
14995.4
14994.5
14993.3
14992
14990.5
14988.9
14987.1
14985.2
14983
14980.8
14978.4
14975.9
14973.3
14970.6
14967.9
14965.2
14962.6
14960
14957.5
14955.1
14952.8
14950.8
14948.9
14947.3
14945.8
14944.7
14943.7
14943.1
14942.6
14942.4
14942.5
14942.7
14943.1
14943.6
14944.2
14945
14945.8
14946.6
14947.4
14948.3
14949
14949.7
14950.4
14950.9
14951.4
14951.8
14952.1
14952.4
14952.6
14952.8
14953
14953.2
14953.5
14953.8
14954.2
14954.6
14955.2
14955.9
14956.6
14957.5
14958.4
14959.5
14960.6
14961.7
14962.9
14964
14965.2
14966.3
14967.4
14968.5
14969.4
14970.3
14971
14971.7
14972.2
14972.6
14972.9
14973
14973
14972.8
14972.5
14972
14971.4
14970.6
14969.6
14968.5
14967.2
14965.8
14964.2
14962.5
14960.7
14958.8
14956.8
14954.8
14952.7
14950.7
14948.7
14946.7
14944.9
14943.1
14941.4
14939.9
14938.6
14937.4
14936.3
14935.4
14934.7
14934.1
14933.7
14933.5
14933.4
14933.5
14933.7
14934
14934.5
14935.1
14935.9
14936.7
14937.6
14938.6
14939.6
14940.6
14941.6
14942.6
14943.4
14944.1
14944.7
14945.1
14945.3
14945.3
14945.1
14944.7
14944.2
14943.4
14942.6
14941.6
14940.6
14939.6
14938.5
14937.6
14936.7
14935.9
14935.3
14934.8
14934.5
14934.4
14934.5
14934.8
14935.3
14936
14936.8
14937.8
14939
14940.3
14941.7
14943.1
14944.7
14946.2
14947.7
14949.1
14950.2
14950.8
14950.4
14948
14941.9
14929.1
14903.4
14853.2
14756.6
14570.7
14332.9
13498.3
15000
14999.8
14999.5
14999.3
14999
14998.9
14998.9
14999
14999.1
14999.3
14999.3
14999.3
14999.3
14999.1
14998.9
14998.5
14998.1
14997.6
14997
14996.3
14995.5
14994.5
14993.3
14992
14990.6
14988.9
14987.2
14985.2
14983.1
14980.8
14978.4
14975.9
14973.4
14970.7
14968
14965.3
14962.7
14960.1
14957.5
14955.1
14952.9
14950.8
14949
14947.3
14945.9
14944.7
14943.8
14943.1
14942.6
14942.4
14942.4
14942.6
14943
14943.5
14944.1
14944.9
14945.7
14946.5
14947.3
14948.1
14948.9
14949.6
14950.2
14950.8
14951.3
14951.7
14952
14952.3
14952.5
14952.7
14952.9
14953.1
14953.4
14953.7
14954.1
14954.6
14955.1
14955.8
14956.5
14957.4
14958.3
14959.4
14960.4
14961.6
14962.7
14963.9
14965.1
14966.2
14967.3
14968.3
14969.3
14970.2
14970.9
14971.6
14972.1
14972.5
14972.8
14972.9
14972.9
14972.8
14972.4
14972
14971.3
14970.5
14969.6
14968.5
14967.2
14965.8
14964.2
14962.5
14960.7
14958.8
14956.8
14954.8
14952.7
14950.7
14948.7
14946.7
14944.8
14943
14941.4
14939.9
14938.5
14937.3
14936.2
14935.4
14934.6
14934.1
14933.7
14933.4
14933.3
14933.4
14933.6
14934
14934.5
14935.1
14935.8
14936.7
14937.6
14938.6
14939.6
14940.6
14941.6
14942.5
14943.3
14944.1
14944.6
14945
14945.2
14945.2
14945
14944.6
14944.1
14943.3
14942.5
14941.5
14940.5
14939.5
14938.5
14937.5
14936.6
14935.8
14935.2
14934.8
14934.5
14934.4
14934.5
14934.8
14935.3
14936
14936.8
14937.9
14939
14940.3
14941.7
14943.2
14944.7
14946.3
14947.8
14949.2
14950.3
14950.8
14950.4
14948
14942
14929.2
14903.7
14854
14758.5
14575.2
14290
13493.4
15000
14999.8
14999.6
14999.3
14999.1
14999
14999
14999.1
14999.2
14999.3
14999.4
14999.4
14999.3
14999.1
14998.9
14998.5
14998.1
14997.6
14997
14996.3
14995.5
14994.5
14993.4
14992.1
14990.6
14989
14987.2
14985.3
14983.2
14980.9
14978.5
14976.1
14973.5
14970.8
14968.2
14965.5
14962.8
14960.2
14957.7
14955.3
14953.1
14951
14949.1
14947.4
14946
14944.8
14943.8
14943.1
14942.6
14942.4
14942.3
14942.5
14942.8
14943.3
14943.9
14944.7
14945.4
14946.2
14947
14947.8
14948.6
14949.3
14949.9
14950.5
14951
14951.4
14951.8
14952
14952.3
14952.5
14952.7
14953
14953.2
14953.5
14953.9
14954.4
14955
14955.6
14956.4
14957.2
14958.2
14959.2
14960.2
14961.4
14962.5
14963.7
14964.9
14966
14967.1
14968.1
14969.1
14969.9
14970.7
14971.4
14971.9
14972.3
14972.6
14972.8
14972.8
14972.6
14972.3
14971.9
14971.2
14970.5
14969.5
14968.4
14967.1
14965.7
14964.1
14962.4
14960.6
14958.7
14956.7
14954.7
14952.7
14950.6
14948.6
14946.6
14944.7
14943
14941.3
14939.8
14938.4
14937.2
14936.1
14935.2
14934.5
14933.9
14933.5
14933.3
14933.2
14933.3
14933.5
14933.8
14934.3
14935
14935.7
14936.5
14937.5
14938.4
14939.5
14940.5
14941.5
14942.4
14943.2
14943.9
14944.5
14944.8
14945
14945
14944.8
14944.4
14943.8
14943.1
14942.3
14941.3
14940.3
14939.3
14938.3
14937.3
14936.5
14935.7
14935.1
14934.7
14934.4
14934.3
14934.5
14934.8
14935.3
14936
14936.8
14937.9
14939
14940.3
14941.7
14943.2
14944.8
14946.3
14947.8
14949.2
14950.3
14950.9
14950.5
14948.1
14942.1
14929.5
14904.2
14855.1
14761
14581.8
14307.8
13502.4
15000
14999.8
14999.7
14999.4
14999.3
14999.2
14999.2
14999.2
14999.3
14999.4
14999.4
14999.4
14999.3
14999.1
14998.9
14998.6
14998.2
14997.7
14997.1
14996.3
14995.5
14994.5
14993.4
14992.1
14990.7
14989.1
14987.3
14985.4
14983.3
14981
14978.7
14976.2
14973.7
14971
14968.4
14965.7
14963
14960.4
14957.9
14955.5
14953.3
14951.2
14949.3
14947.6
14946.1
14944.9
14943.9
14943.1
14942.6
14942.3
14942.2
14942.3
14942.6
14943.1
14943.7
14944.3
14945.1
14945.8
14946.6
14947.4
14948.2
14948.9
14949.5
14950.1
14950.6
14951
14951.4
14951.7
14952
14952.2
14952.5
14952.7
14953
14953.3
14953.7
14954.2
14954.7
14955.4
14956.1
14956.9
14957.9
14958.9
14959.9
14961
14962.2
14963.4
14964.5
14965.6
14966.7
14967.8
14968.7
14969.6
14970.4
14971.1
14971.6
14972.1
14972.4
14972.5
14972.5
14972.4
14972.1
14971.7
14971.1
14970.3
14969.4
14968.3
14967
14965.6
14964
14962.3
14960.5
14958.6
14956.6
14954.6
14952.6
14950.5
14948.5
14946.5
14944.6
14942.8
14941.2
14939.6
14938.3
14937
14936
14935.1
14934.3
14933.8
14933.3
14933.1
14933
14933.1
14933.3
14933.7
14934.2
14934.8
14935.5
14936.4
14937.3
14938.3
14939.3
14940.3
14941.3
14942.2
14943
14943.7
14944.2
14944.6
14944.8
14944.7
14944.5
14944.1
14943.5
14942.8
14942
14941
14940
14939
14938
14937.1
14936.2
14935.5
14934.9
14934.5
14934.3
14934.2
14934.4
14934.7
14935.3
14936
14936.9
14937.9
14939.1
14940.4
14941.8
14943.3
14944.8
14946.4
14947.9
14949.3
14950.4
14951
14950.5
14948.2
14942.3
14929.8
14904.8
14856.2
14763.2
14585.4
14315.6
13502.7
15000
14999.8
14999.7
14999.5
14999.4
14999.3
14999.3
14999.4
14999.4
14999.5
14999.5
14999.4
14999.3
14999.1
14998.9
14998.6
14998.2
14997.7
14997.1
14996.4
14995.5
14994.6
14993.4
14992.2
14990.7
14989.2
14987.4
14985.5
14983.4
14981.2
14978.9
14976.4
14973.9
14971.3
14968.6
14966
14963.3
14960.7
14958.2
14955.8
14953.6
14951.4
14949.5
14947.8
14946.3
14945
14944
14943.2
14942.6
14942.2
14942.1
14942.1
14942.4
14942.8
14943.3
14943.9
14944.6
14945.4
14946.1
14946.9
14947.6
14948.3
14949
14949.6
14950.1
14950.5
14950.9
14951.3
14951.6
14951.8
14952.1
14952.3
14952.6
14953
14953.4
14953.8
14954.4
14955
14955.8
14956.6
14957.5
14958.5
14959.5
14960.6
14961.8
14962.9
14964.1
14965.2
14966.3
14967.3
14968.3
14969.2
14970
14970.7
14971.2
14971.7
14972
14972.2
14972.2
14972.1
14971.9
14971.4
14970.9
14970.1
14969.2
14968.1
14966.9
14965.5
14963.9
14962.2
14960.4
14958.5
14956.5
14954.5
14952.4
14950.4
14948.3
14946.4
14944.5
14942.7
14941
14939.4
14938
14936.8
14935.7
14934.8
14934.1
14933.5
14933.1
14932.8
14932.8
14932.8
14933.1
14933.4
14933.9
14934.6
14935.3
14936.1
14937.1
14938
14939
14940.1
14941
14941.9
14942.7
14943.4
14943.9
14944.2
14944.4
14944.4
14944.1
14943.7
14943.1
14942.4
14941.5
14940.6
14939.6
14938.6
14937.7
14936.7
14935.9
14935.2
14934.7
14934.3
14934.1
14934.1
14934.3
14934.7
14935.2
14936
14936.9
14937.9
14939.1
14940.5
14941.9
14943.4
14945
14946.5
14948
14949.4
14950.5
14951.1
14950.7
14948.3
14942.5
14930.1
14905.4
14857.4
14765.6
14591.7
14324.5
13855.3
15000
14999.2
14999.3
14999.5
14999.5
14999.5
14999.5
14999.5
14999.5
14999.5
14999.5
14999.4
14999.3
14999.1
14998.9
14998.6
14998.2
14997.7
14997.1
14996.4
14995.6
14994.6
14993.5
14992.2
14990.8
14989.2
14987.5
14985.6
14983.6
14981.4
14979.1
14976.6
14974.1
14971.5
14968.9
14966.3
14963.6
14961.1
14958.6
14956.1
14953.9
14951.7
14949.8
14948
14946.5
14945.2
14944.1
14943.2
14942.5
14942.1
14941.9
14941.9
14942.1
14942.4
14942.8
14943.4
14944
14944.8
14945.5
14946.2
14947
14947.7
14948.3
14948.9
14949.5
14949.9
14950.3
14950.7
14951
14951.3
14951.6
14951.9
14952.2
14952.6
14953
14953.4
14954
14954.6
14955.3
14956.1
14957
14958
14959
14960.1
14961.2
14962.4
14963.5
14964.6
14965.7
14966.8
14967.7
14968.6
14969.5
14970.2
14970.8
14971.2
14971.6
14971.8
14971.9
14971.8
14971.6
14971.2
14970.6
14969.9
14969
14967.9
14966.7
14965.3
14963.7
14962.1
14960.3
14958.4
14956.4
14954.4
14952.3
14950.2
14948.2
14946.2
14944.3
14942.5
14940.8
14939.2
14937.8
14936.5
14935.4
14934.5
14933.8
14933.2
14932.8
14932.5
14932.4
14932.5
14932.7
14933.1
14933.6
14934.3
14935
14935.9
14936.8
14937.8
14938.8
14939.7
14940.7
14941.6
14942.4
14943
14943.5
14943.8
14944
14943.9
14943.7
14943.2
14942.6
14941.9
14941
14940.1
14939.1
14938.2
14937.2
14936.3
14935.6
14934.9
14934.4
14934.1
14933.9
14933.9
14934.1
14934.6
14935.2
14935.9
14936.9
14938
14939.2
14940.6
14942
14943.5
14945.1
14946.6
14948.2
14949.5
14950.6
14951.2
14950.8
14948.5
14942.7
14930.4
14905.9
14858.5
14768.1
14597.6
14332.3
13821.3
15000
14993.5
14996.7
14998.6
14999.3
14999.5
14999.6
14999.6
14999.6
14999.6
14999.6
14999.5
14999.3
14999.2
14998.9
14998.6
14998.2
14997.7
14997.1
14996.4
14995.6
14994.6
14993.5
14992.3
14990.9
14989.3
14987.6
14985.7
14983.7
14981.5
14979.3
14976.9
14974.4
14971.8
14969.2
14966.6
14964
14961.4
14958.9
14956.5
14954.2
14952.1
14950.1
14948.3
14946.7
14945.3
14944.2
14943.2
14942.5
14942
14941.7
14941.6
14941.7
14941.9
14942.3
14942.8
14943.4
14944.1
14944.8
14945.5
14946.2
14946.9
14947.5
14948.1
14948.7
14949.2
14949.6
14950
14950.4
14950.7
14951
14951.4
14951.7
14952.1
14952.5
14952.9
14953.5
14954.1
14954.8
14955.6
14956.5
14957.4
14958.4
14959.5
14960.6
14961.7
14962.8
14964
14965.1
14966.1
14967.1
14968
14968.9
14969.6
14970.2
14970.7
14971.1
14971.3
14971.4
14971.4
14971.2
14970.8
14970.3
14969.6
14968.7
14967.7
14966.4
14965.1
14963.5
14961.9
14960.1
14958.2
14956.2
14954.2
14952.1
14950
14948
14946
14944
14942.2
14940.5
14938.9
14937.5
14936.2
14935.1
14934.2
14933.4
14932.8
14932.4
14932.1
14932
14932.1
14932.4
14932.7
14933.3
14933.9
14934.7
14935.5
14936.4
14937.4
14938.4
14939.4
14940.3
14941.2
14941.9
14942.5
14943
14943.3
14943.4
14943.3
14943.1
14942.6
14942
14941.3
14940.5
14939.5
14938.6
14937.6
14936.7
14935.9
14935.1
14934.5
14934.1
14933.8
14933.7
14933.7
14934
14934.5
14935.1
14935.9
14936.9
14938
14939.3
14940.6
14942.1
14943.6
14945.2
14946.8
14948.3
14949.7
14950.8
14951.3
14950.9
14948.6
14942.8
14930.6
14906.4
14859.6
14770.6
14602.4
14337.8
13339.2
15000
14967
14985.5
14995.4
14998.4
14999.3
14999.6
14999.6
14999.7
14999.7
14999.6
14999.5
14999.4
14999.2
14998.9
14998.6
14998.2
14997.7
14997.1
14996.4
14995.6
14994.7
14993.6
14992.3
14990.9
14989.4
14987.7
14985.8
14983.8
14981.7
14979.4
14977.1
14974.6
14972.1
14969.5
14966.9
14964.3
14961.8
14959.3
14956.9
14954.6
14952.4
14950.4
14948.6
14946.9
14945.5
14944.3
14943.3
14942.5
14941.9
14941.5
14941.3
14941.3
14941.4
14941.7
14942.2
14942.7
14943.3
14943.9
14944.6
14945.3
14946
14946.6
14947.2
14947.8
14948.4
14948.8
14949.3
14949.7
14950
14950.4
14950.7
14951.1
14951.5
14951.9
14952.4
14952.9
14953.5
14954.2
14955
14955.8
14956.8
14957.8
14958.8
14959.9
14961
14962.1
14963.2
14964.3
14965.4
14966.4
14967.3
14968.2
14968.9
14969.6
14970.1
14970.5
14970.8
14970.9
14970.9
14970.7
14970.4
14969.9
14969.2
14968.4
14967.4
14966.2
14964.8
14963.3
14961.7
14959.9
14958
14956
14954
14951.9
14949.8
14947.7
14945.7
14943.8
14941.9
14940.2
14938.6
14937.1
14935.8
14934.7
14933.7
14933
14932.4
14931.9
14931.7
14931.6
14931.7
14931.9
14932.3
14932.8
14933.5
14934.2
14935.1
14936
14937
14938
14938.9
14939.8
14940.7
14941.4
14942
14942.5
14942.7
14942.8
14942.7
14942.4
14942
14941.4
14940.6
14939.8
14938.9
14937.9
14937
14936.1
14935.3
14934.7
14934.1
14933.7
14933.4
14933.4
14933.5
14933.8
14934.3
14935
14935.9
14936.9
14938.1
14939.3
14940.7
14942.2
14943.8
14945.3
14946.9
14948.4
14949.8
14950.9
14951.4
14950.9
14948.6
14942.9
14930.9
14906.9
14860.6
14772.6
14606.4
14345
13315.3
15000
14986.9
14989.6
14994.4
14997.5
14998.9
14999.4
14999.6
14999.7
14999.7
14999.6
14999.5
14999.4
14999.2
14998.9
14998.6
14998.2
14997.7
14997.1
14996.4
14995.6
14994.7
14993.6
14992.4
14991
14989.5
14987.8
14985.9
14984
14981.8
14979.6
14977.3
14974.8
14972.3
14969.8
14967.2
14964.6
14962.1
14959.6
14957.2
14954.9
14952.7
14950.7
14948.8
14947.1
14945.7
14944.4
14943.3
14942.4
14941.7
14941.2
14941
14940.8
14940.9
14941.1
14941.5
14941.9
14942.4
14943
14943.7
14944.3
14945
14945.6
14946.3
14946.8
14947.4
14947.9
14948.4
14948.8
14949.2
14949.6
14950
14950.4
14950.8
14951.2
14951.7
14952.3
14952.9
14953.5
14954.3
14955.1
14956
14957
14958
14959.1
14960.2
14961.3
14962.4
14963.5
14964.5
14965.5
14966.5
14967.4
14968.2
14968.8
14969.4
14969.9
14970.2
14970.4
14970.4
14970.3
14970
14969.5
14968.9
14968
14967
14965.9
14964.5
14963.1
14961.4
14959.6
14957.8
14955.8
14953.7
14951.7
14949.6
14947.5
14945.4
14943.5
14941.6
14939.8
14938.2
14936.7
14935.4
14934.3
14933.3
14932.5
14931.9
14931.4
14931.2
14931.1
14931.2
14931.4
14931.8
14932.3
14933
14933.7
14934.6
14935.5
14936.5
14937.4
14938.4
14939.3
14940.1
14940.8
14941.4
14941.8
14942
14942.1
14942
14941.7
14941.2
14940.6
14939.8
14939
14938.1
14937.2
14936.4
14935.5
14934.8
14934.1
14933.6
14933.3
14933.1
14933.1
14933.3
14933.6
14934.2
14934.9
14935.8
14936.9
14938.1
14939.4
14940.8
14942.3
14943.9
14945.5
14947
14948.6
14949.9
14951
14951.5
14951
14948.7
14943
14931
14907.2
14861.3
14773.5
14604.6
14349.5
13613.1
15000
14989
14990.2
14994.4
14997.3
14998.7
14999.3
14999.6
14999.7
14999.7
14999.6
14999.5
14999.4
14999.2
14998.9
14998.6
14998.2
14997.7
14997.1
14996.4
14995.6
14994.7
14993.6
14992.4
14991
14989.5
14987.8
14986
14984
14981.9
14979.7
14977.4
14975
14972.5
14970
14967.4
14964.9
14962.4
14959.9
14957.5
14955.2
14953
14951
14949.1
14947.3
14945.8
14944.4
14943.3
14942.3
14941.5
14941
14940.6
14940.4
14940.3
14940.5
14940.7
14941.1
14941.5
14942
14942.6
14943.3
14943.9
14944.5
14945.2
14945.8
14946.3
14946.9
14947.4
14947.9
14948.3
14948.7
14949.1
14949.6
14950
14950.5
14951
14951.5
14952.1
14952.8
14953.5
14954.3
14955.2
14956.2
14957.1
14958.2
14959.3
14960.4
14961.5
14962.6
14963.6
14964.6
14965.6
14966.5
14967.3
14968.1
14968.7
14969.2
14969.5
14969.7
14969.8
14969.7
14969.4
14969
14968.4
14967.6
14966.7
14965.5
14964.2
14962.8
14961.1
14959.4
14957.5
14955.5
14953.5
14951.4
14949.3
14947.2
14945.1
14943.1
14941.2
14939.4
14937.8
14936.3
14934.9
14933.8
14932.8
14931.9
14931.3
14930.9
14930.6
14930.5
14930.6
14930.8
14931.2
14931.7
14932.4
14933.2
14934
14934.9
14935.9
14936.9
14937.8
14938.7
14939.5
14940.2
14940.7
14941.1
14941.3
14941.3
14941.2
14940.8
14940.4
14939.7
14939
14938.2
14937.3
14936.5
14935.6
14934.8
14934.1
14933.5
14933.1
14932.8
14932.7
14932.7
14933
14933.4
14934.1
14934.8
14935.8
14936.9
14938.1
14939.5
14940.9
14942.5
14944
14945.6
14947.2
14948.7
14950
14951
14951.5
14951
14948.7
14943
14931.1
14907.5
14861.9
14774.8
14609.7
14353.1
13324.4
15000
14977.5
14982.7
14991.2
14995.8
14997.9
14998.9
14999.3
14999.5
14999.6
14999.6
14999.5
14999.3
14999.1
14998.9
14998.6
14998.2
14997.7
14997.1
14996.4
14995.6
14994.6
14993.5
14992.3
14991
14989.4
14987.8
14986
14984
14982
14979.8
14977.5
14975.1
14972.6
14970.1
14967.6
14965.1
14962.6
14960.2
14957.8
14955.5
14953.3
14951.2
14949.3
14947.5
14945.9
14944.5
14943.3
14942.2
14941.4
14940.7
14940.2
14939.9
14939.7
14939.8
14939.9
14940.2
14940.6
14941
14941.6
14942.1
14942.7
14943.4
14944
14944.6
14945.2
14945.8
14946.3
14946.8
14947.3
14947.8
14948.2
14948.7
14949.1
14949.6
14950.1
14950.7
14951.3
14951.9
14952.7
14953.5
14954.3
14955.2
14956.2
14957.2
14958.3
14959.4
14960.5
14961.6
14962.6
14963.7
14964.7
14965.6
14966.4
14967.2
14967.8
14968.4
14968.8
14969
14969.1
14969.1
14968.9
14968.5
14967.9
14967.2
14966.3
14965.2
14963.9
14962.4
14960.8
14959.1
14957.2
14955.2
14953.2
14951.1
14949
14946.9
14944.8
14942.8
14940.8
14939
14937.3
14935.8
14934.4
14933.2
14932.2
14931.4
14930.7
14930.2
14930
14929.9
14929.9
14930.2
14930.6
14931.1
14931.8
14932.5
14933.4
14934.3
14935.3
14936.2
14937.1
14938
14938.8
14939.4
14939.9
14940.3
14940.4
14940.5
14940.3
14939.9
14939.4
14938.8
14938.1
14937.3
14936.5
14935.6
14934.8
14934.1
14933.4
14932.9
14932.5
14932.3
14932.3
14932.4
14932.7
14933.2
14933.9
14934.7
14935.7
14936.9
14938.2
14939.5
14941
14942.5
14944.1
14945.7
14947.3
14948.7
14950
14951
14951.5
14950.9
14948.6
14942.9
14931.1
14907.7
14862.6
14776.5
14613
14358.8
13511.1
15000
14988
14987.1
14990.6
14994.1
14996.6
14998.1
14998.9
14999.3
14999.5
14999.5
14999.5
14999.3
14999.1
14998.9
14998.5
14998.1
14997.6
14997
14996.3
14995.5
14994.6
14993.5
14992.3
14990.9
14989.4
14987.7
14985.9
14984
14981.9
14979.7
14977.5
14975.1
14972.7
14970.2
14967.7
14965.2
14962.8
14960.3
14957.9
14955.6
14953.5
14951.4
14949.4
14947.6
14946
14944.5
14943.2
14942.1
14941.1
14940.4
14939.8
14939.4
14939.1
14939
14939.1
14939.3
14939.6
14940
14940.4
14941
14941.5
14942.1
14942.7
14943.4
14944
14944.5
14945.1
14945.7
14946.2
14946.7
14947.2
14947.7
14948.1
14948.6
14949.2
14949.7
14950.4
14951
14951.7
14952.5
14953.4
14954.3
14955.2
14956.2
14957.3
14958.3
14959.4
14960.5
14961.6
14962.6
14963.6
14964.6
14965.5
14966.3
14967
14967.5
14968
14968.3
14968.4
14968.4
14968.3
14967.9
14967.4
14966.7
14965.8
14964.7
14963.5
14962.1
14960.5
14958.8
14956.9
14954.9
14952.9
14950.8
14948.6
14946.5
14944.4
14942.4
14940.4
14938.6
14936.8
14935.3
14933.9
14932.6
14931.6
14930.7
14930
14929.6
14929.3
14929.2
14929.2
14929.5
14929.9
14930.4
14931.1
14931.8
14932.7
14933.6
14934.5
14935.5
14936.4
14937.2
14938
14938.6
14939.1
14939.4
14939.5
14939.5
14939.3
14939
14938.5
14937.8
14937.1
14936.4
14935.5
14934.8
14934
14933.3
14932.7
14932.3
14931.9
14931.8
14931.8
14932
14932.4
14933
14933.7
14934.6
14935.7
14936.9
14938.2
14939.6
14941.1
14942.6
14944.2
14945.8
14947.3
14948.8
14950.1
14951
14951.4
14950.8
14948.4
14942.8
14931
14907.8
14863.2
14778.5
14619.4
14366
13670.6
15000
14993.5
14990.5
14991.1
14993.3
14995.6
14997.3
14998.4
14999
14999.3
14999.4
14999.4
14999.3
14999.1
14998.8
14998.5
14998.1
14997.6
14997
14996.3
14995.4
14994.5
14993.4
14992.1
14990.8
14989.3
14987.6
14985.8
14983.9
14981.8
14979.6
14977.4
14975
14972.6
14970.2
14967.7
14965.2
14962.8
14960.4
14958
14955.7
14953.6
14951.5
14949.5
14947.7
14946
14944.5
14943.1
14941.9
14940.9
14940.1
14939.4
14938.9
14938.5
14938.3
14938.3
14938.4
14938.6
14938.9
14939.3
14939.7
14940.3
14940.8
14941.4
14942
14942.7
14943.3
14943.8
14944.4
14945
14945.5
14946
14946.6
14947.1
14947.6
14948.2
14948.7
14949.4
14950
14950.7
14951.5
14952.3
14953.2
14954.2
14955.1
14956.2
14957.2
14958.3
14959.4
14960.5
14961.5
14962.6
14963.5
14964.4
14965.3
14966
14966.6
14967.1
14967.5
14967.7
14967.7
14967.6
14967.3
14966.8
14966.2
14965.3
14964.3
14963.1
14961.7
14960.1
14958.4
14956.5
14954.6
14952.5
14950.4
14948.3
14946.1
14944
14941.9
14940
14938.1
14936.3
14934.7
14933.3
14932
14930.9
14930
14929.3
14928.8
14928.5
14928.4
14928.5
14928.7
14929.1
14929.6
14930.3
14931.1
14931.9
14932.8
14933.7
14934.7
14935.6
14936.4
14937.1
14937.7
14938.1
14938.4
14938.5
14938.5
14938.3
14937.9
14937.4
14936.8
14936.1
14935.3
14934.6
14933.8
14933.1
14932.5
14932
14931.6
14931.3
14931.2
14931.3
14931.6
14932.1
14932.7
14933.5
14934.5
14935.6
14936.8
14938.2
14939.6
14941.1
14942.7
14944.3
14945.9
14947.4
14948.8
14950
14950.9
14951.3
14950.6
14948.2
14942.6
14930.9
14908
14864
14780.6
14623.7
14374.6
13756.9
15000
14996
14993
14992.3
14993.3
14995
14996.6
14997.8
14998.6
14999
14999.2
14999.3
14999.2
14999
14998.8
14998.4
14998
14997.5
14996.9
14996.2
14995.3
14994.3
14993.2
14992
14990.6
14989.1
14987.4
14985.6
14983.7
14981.6
14979.4
14977.2
14974.9
14972.5
14970
14967.6
14965.2
14962.7
14960.3
14958
14955.7
14953.6
14951.5
14949.5
14947.7
14946
14944.4
14943
14941.7
14940.7
14939.7
14939
14938.4
14937.9
14937.6
14937.5
14937.5
14937.6
14937.8
14938.1
14938.5
14939
14939.5
14940.1
14940.7
14941.3
14941.9
14942.5
14943.1
14943.7
14944.3
14944.8
14945.4
14945.9
14946.5
14947.1
14947.7
14948.3
14948.9
14949.7
14950.4
14951.2
14952.1
14953
14954
14955
14956.1
14957.1
14958.2
14959.3
14960.4
14961.4
14962.4
14963.4
14964.2
14965
14965.6
14966.2
14966.6
14966.8
14966.9
14966.9
14966.6
14966.2
14965.6
14964.8
14963.8
14962.6
14961.2
14959.7
14958
14956.2
14954.2
14952.2
14950.1
14947.9
14945.7
14943.6
14941.5
14939.5
14937.6
14935.8
14934.1
14932.6
14931.3
14930.2
14929.3
14928.6
14928.1
14927.7
14927.6
14927.6
14927.9
14928.3
14928.8
14929.5
14930.2
14931.1
14932
14932.9
14933.8
14934.7
14935.4
14936.1
14936.7
14937.1
14937.4
14937.5
14937.4
14937.2
14936.8
14936.3
14935.7
14935
14934.3
14933.6
14932.8
14932.2
14931.6
14931.2
14930.8
14930.7
14930.7
14930.9
14931.2
14931.7
14932.4
14933.3
14934.3
14935.5
14936.8
14938.2
14939.6
14941.2
14942.7
14944.3
14945.9
14947.4
14948.7
14949.9
14950.8
14951.1
14950.4
14947.9
14942.3
14930.7
14908
14864.6
14782.4
14625.8
14381.1
13765.8
15000
14997.3
14994.8
14993.6
14993.8
14994.9
14996.2
14997.3
14998.2
14998.7
14999
14999.1
14999.1
14999
14998.7
14998.4
14997.9
14997.4
14996.8
14996
14995.2
14994.2
14993.1
14991.8
14990.4
14988.8
14987.1
14985.3
14983.4
14981.3
14979.1
14976.9
14974.6
14972.2
14969.8
14967.4
14964.9
14962.5
14960.2
14957.9
14955.6
14953.4
14951.4
14949.4
14947.6
14945.8
14944.3
14942.8
14941.5
14940.4
14939.4
14938.5
14937.8
14937.3
14936.9
14936.7
14936.5
14936.6
14936.7
14936.9
14937.3
14937.7
14938.2
14938.7
14939.3
14939.9
14940.5
14941.1
14941.7
14942.3
14942.9
14943.5
14944.1
14944.7
14945.3
14945.9
14946.5
14947.1
14947.8
14948.5
14949.3
14950.1
14950.9
14951.9
14952.8
14953.8
14954.9
14955.9
14957
14958.1
14959.2
14960.2
14961.3
14962.2
14963.1
14963.9
14964.6
14965.2
14965.7
14966
14966.1
14966.1
14965.9
14965.5
14965
14964.2
14963.2
14962.1
14960.8
14959.2
14957.6
14955.8
14953.8
14951.8
14949.7
14947.5
14945.3
14943.1
14941
14939
14937
14935.2
14933.5
14932
14930.6
14929.5
14928.5
14927.8
14927.2
14926.9
14926.7
14926.8
14927
14927.4
14927.9
14928.6
14929.3
14930.2
14931.1
14932
14932.8
14933.7
14934.5
14935.1
14935.7
14936.1
14936.3
14936.4
14936.3
14936
14935.6
14935.1
14934.5
14933.9
14933.2
14932.5
14931.8
14931.2
14930.7
14930.4
14930.1
14930
14930.1
14930.4
14930.8
14931.4
14932.2
14933.1
14934.2
14935.4
14936.7
14938.1
14939.6
14941.2
14942.7
14944.3
14945.8
14947.3
14948.6
14949.8
14950.6
14950.8
14950
14947.5
14941.9
14930.4
14908
14865.1
14783.3
14626.5
14386.8
13789.8
15000
14998.1
14996.2
14994.9
14994.6
14995.1
14996
14997
14997.8
14998.5
14998.8
14999
14999
14998.9
14998.6
14998.3
14997.9
14997.3
14996.7
14995.9
14995
14994
14992.9
14991.6
14990.1
14988.5
14986.8
14985
14983
14980.9
14978.8
14976.5
14974.2
14971.8
14969.4
14967
14964.6
14962.2
14959.9
14957.6
14955.4
14953.2
14951.2
14949.2
14947.4
14945.6
14944
14942.6
14941.2
14940
14939
14938.1
14937.3
14936.7
14936.2
14935.9
14935.6
14935.6
14935.6
14935.8
14936
14936.4
14936.8
14937.3
14937.8
14938.4
14939
14939.6
14940.3
14940.9
14941.5
14942.2
14942.8
14943.4
14944
14944.6
14945.3
14945.9
14946.6
14947.3
14948.1
14948.9
14949.7
14950.6
14951.6
14952.6
14953.6
14954.7
14955.8
14956.8
14957.9
14959
14960
14961
14962
14962.8
14963.5
14964.2
14964.7
14965
14965.2
14965.3
14965.1
14964.8
14964.3
14963.6
14962.6
14961.5
14960.2
14958.8
14957.1
14955.3
14953.4
14951.3
14949.2
14947.1
14944.9
14942.7
14940.5
14938.4
14936.5
14934.6
14932.9
14931.3
14929.9
14928.7
14927.7
14927
14926.4
14926
14925.8
14925.9
14926.1
14926.5
14927
14927.6
14928.4
14929.2
14930.1
14931
14931.8
14932.7
14933.4
14934
14934.5
14934.9
14935.1
14935.2
14935.1
14934.8
14934.4
14933.9
14933.3
14932.7
14932.1
14931.4
14930.8
14930.3
14929.8
14929.5
14929.3
14929.3
14929.5
14929.8
14930.3
14931
14931.9
14932.9
14934
14935.2
14936.6
14938.1
14939.6
14941.1
14942.7
14944.3
14945.8
14947.2
14948.5
14949.5
14950.3
14950.4
14949.6
14947
14941.4
14930
14907.9
14865.6
14785.5
14635
14397.3
13822.4
15000
14998.7
14997.1
14995.9
14995.4
14995.5
14996.1
14996.9
14997.6
14998.2
14998.6
14998.8
14998.9
14998.8
14998.6
14998.2
14997.8
14997.2
14996.5
14995.8
14994.8
14993.8
14992.6
14991.3
14989.8
14988.2
14986.5
14984.6
14982.6
14980.5
14978.3
14976
14973.7
14971.3
14968.9
14966.5
14964.1
14961.8
14959.4
14957.2
14955
14952.9
14950.8
14948.9
14947.1
14945.3
14943.7
14942.2
14940.9
14939.6
14938.5
14937.6
14936.7
14936
14935.5
14935.1
14934.8
14934.6
14934.6
14934.6
14934.8
14935.1
14935.5
14935.9
14936.4
14937
14937.5
14938.2
14938.8
14939.4
14940.1
14940.7
14941.4
14942
14942.6
14943.3
14943.9
14944.6
14945.3
14946
14946.8
14947.6
14948.5
14949.4
14950.3
14951.3
14952.3
14953.4
14954.4
14955.5
14956.6
14957.7
14958.8
14959.8
14960.7
14961.6
14962.4
14963.1
14963.6
14964
14964.3
14964.4
14964.3
14964
14963.5
14962.9
14962
14960.9
14959.7
14958.2
14956.6
14954.8
14952.9
14950.9
14948.8
14946.6
14944.4
14942.2
14940
14937.9
14935.9
14934
14932.2
14930.6
14929.2
14927.9
14926.9
14926.1
14925.5
14925.1
14924.9
14924.9
14925.1
14925.5
14926
14926.6
14927.4
14928.2
14929
14929.9
14930.8
14931.6
14932.3
14932.9
14933.4
14933.7
14933.9
14933.9
14933.8
14933.5
14933.2
14932.7
14932.1
14931.5
14930.9
14930.3
14929.7
14929.3
14928.9
14928.7
14928.6
14928.6
14928.9
14929.3
14929.9
14930.6
14931.5
14932.6
14933.8
14935.1
14936.5
14938
14939.5
14941.1
14942.6
14944.2
14945.6
14947
14948.2
14949.2
14949.9
14950
14949.1
14946.5
14940.8
14929.5
14907.7
14866.2
14787.9
14641.3
14408.9
13826.8
15000
14999
14997.8
14996.7
14996.1
14996
14996.4
14996.9
14997.5
14998.1
14998.5
14998.7
14998.8
14998.7
14998.5
14998.1
14997.7
14997.1
14996.4
14995.6
14994.7
14993.6
14992.4
14991
14989.5
14987.8
14986
14984.1
14982.1
14980
14977.7
14975.4
14973.1
14970.7
14968.3
14965.9
14963.5
14961.2
14958.9
14956.6
14954.5
14952.4
14950.4
14948.4
14946.6
14944.9
14943.3
14941.8
14940.5
14939.2
14938.1
14937.1
14936.2
14935.4
14934.8
14934.3
14933.9
14933.7
14933.5
14933.5
14933.6
14933.8
14934.1
14934.5
14935
14935.5
14936
14936.6
14937.3
14937.9
14938.6
14939.2
14939.9
14940.5
14941.2
14941.9
14942.6
14943.3
14944
14944.7
14945.5
14946.3
14947.1
14948
14949
14949.9
14951
14952
14953.1
14954.2
14955.3
14956.4
14957.5
14958.5
14959.5
14960.4
14961.2
14961.9
14962.5
14963
14963.3
14963.4
14963.4
14963.2
14962.8
14962.2
14961.3
14960.3
14959.1
14957.7
14956.1
14954.3
14952.4
14950.4
14948.3
14946.1
14943.9
14941.7
14939.5
14937.3
14935.3
14933.3
14931.5
14929.9
14928.4
14927.1
14926.1
14925.2
14924.6
14924.2
14923.9
14923.9
14924.1
14924.4
14924.9
14925.6
14926.3
14927.1
14927.9
14928.8
14929.6
14930.4
14931.1
14931.7
14932.1
14932.4
14932.6
14932.6
14932.5
14932.2
14931.8
14931.4
14930.8
14930.2
14929.7
14929.1
14928.6
14928.2
14927.9
14927.8
14927.8
14927.9
14928.3
14928.7
14929.4
14930.2
14931.2
14932.3
14933.6
14934.9
14936.4
14937.9
14939.4
14941
14942.5
14944
14945.4
14946.8
14947.9
14948.9
14949.4
14949.4
14948.4
14945.8
14940.1
14928.9
14907.5
14866.8
14789.7
14642.4
14417.3
13836
15000
14998.6
14998.1
14997.3
14996.8
14996.6
14996.7
14997.1
14997.6
14998.1
14998.4
14998.6
14998.7
14998.6
14998.4
14998
14997.6
14997
14996.3
14995.4
14994.5
14993.3
14992.1
14990.7
14989.1
14987.4
14985.6
14983.6
14981.6
14979.4
14977.1
14974.8
14972.4
14970
14967.6
14965.2
14962.8
14960.5
14958.2
14955.9
14953.8
14951.7
14949.8
14947.9
14946.1
14944.4
14942.8
14941.4
14940
14938.7
14937.6
14936.5
14935.6
14934.8
14934.1
14933.5
14933.1
14932.7
14932.5
14932.5
14932.5
14932.6
14932.8
14933.1
14933.5
14934
14934.5
14935.1
14935.7
14936.3
14937
14937.7
14938.3
14939
14939.7
14940.4
14941.1
14941.8
14942.6
14943.3
14944.1
14944.9
14945.8
14946.6
14947.6
14948.6
14949.6
14950.6
14951.7
14952.8
14953.9
14955
14956.1
14957.1
14958.1
14959.1
14959.9
14960.7
14961.3
14961.9
14962.2
14962.4
14962.4
14962.3
14961.9
14961.4
14960.6
14959.6
14958.5
14957.1
14955.5
14953.8
14951.9
14949.9
14947.8
14945.6
14943.4
14941.1
14938.9
14936.7
14934.6
14932.7
14930.8
14929.1
14927.6
14926.3
14925.2
14924.3
14923.6
14923.2
14922.9
14922.9
14923
14923.4
14923.9
14924.5
14925.2
14926
14926.8
14927.6
14928.4
14929.2
14929.8
14930.4
14930.8
14931.1
14931.3
14931.3
14931.1
14930.9
14930.5
14930
14929.5
14929
14928.4
14927.9
14927.5
14927.2
14927
14926.9
14927
14927.2
14927.6
14928.2
14928.9
14929.8
14930.9
14932.1
14933.3
14934.7
14936.2
14937.7
14939.3
14940.8
14942.3
14943.8
14945.2
14946.4
14947.5
14948.4
14948.8
14948.7
14947.7
14945
14939.3
14928.2
14907.1
14867
14791.1
14646.5
14427.6
13379.7
15000
14992.4
14997.1
14997.5
14997.2
14997.1
14997.1
14997.4
14997.7
14998.1
14998.4
14998.6
14998.6
14998.5
14998.3
14997.9
14997.5
14996.9
14996.1
14995.3
14994.3
14993.1
14991.8
14990.3
14988.7
14987
14985.1
14983.1
14981
14978.8
14976.4
14974.1
14971.7
14969.2
14966.8
14964.4
14962
14959.6
14957.4
14955.2
14953
14951
14949
14947.2
14945.4
14943.8
14942.2
14940.8
14939.4
14938.1
14937
14935.9
14935
14934.1
14933.4
14932.8
14932.2
14931.9
14931.6
14931.4
14931.3
14931.4
14931.6
14931.8
14932.1
14932.5
14933
14933.6
14934.1
14934.8
14935.4
14936.1
14936.8
14937.5
14938.2
14938.9
14939.6
14940.3
14941.1
14941.9
14942.7
14943.5
14944.3
14945.2
14946.1
14947.1
14948.1
14949.2
14950.2
14951.3
14952.5
14953.6
14954.7
14955.7
14956.8
14957.7
14958.6
14959.4
14960.1
14960.7
14961.1
14961.4
14961.4
14961.3
14961
14960.5
14959.8
14958.9
14957.8
14956.4
14954.9
14953.2
14951.3
14949.4
14947.2
14945.1
14942.8
14940.6
14938.3
14936.1
14934
14932
14930.1
14928.4
14926.8
14925.4
14924.3
14923.4
14922.7
14922.2
14921.9
14921.8
14922
14922.3
14922.7
14923.3
14924
14924.8
14925.6
14926.4
14927.2
14927.9
14928.5
14929.1
14929.5
14929.7
14929.9
14929.9
14929.7
14929.4
14929.1
14928.6
14928.2
14927.7
14927.2
14926.7