<?xml version="1.0"?>
<VTKFile type="ImageData" version="0.1" byte_order="LittleEndian">
  <ImageData Origin="0 0 0" Spacing="1e-05 1e-05 1e-05" WholeExtent="0 191 0 191 0 0">
    <Piece Extent="0 191 0 191 0 0">
      <CellData Scalars="T">
        <DataArray type="Float32" Name="T" format="ascii" NumberOfComponents="1">
662.709
15000
15000
15000
15000
15000
15000
15000
15000
14999.9
14999.9
14999.9
14999.9
14999.9
14999.9
14999.9
14999.9
14999.9
14999.9
14999.9
14999.9
14999.9
14999.9
14999.9
14999.9
14999.9
14999.9
14999.9
14999.9
14999.9
14999.9
14999.9
15000
15000
15000
15000
15000
15000
15000
15000
14999.9
14999.9
14999.9
14999.9
14999.9
14999.8
14999.8
14999.7
14999.7
14999.6
14999.5
14999.3
14999.2
14999
14998.8
14998.5
14998.2
14997.7
14997.3
14996.7
14996
14995.1
14994.1
14992.9
14991.5
14989.8
14987.9
14985.6
14982.9
14979.8
14976.1
14971.9
14967
14961.4
14954.9
14947.4
14938.9
14929.2
14918.1
14905.5
14891.2
14875.1
14857
14836.6
14813.8
14788.3
14759.9
14728.3
14693.3
14654.5
14611.8
14564.9
14513.4
14457
14395.5
14328.6
14256
14177.3
14092.4
14000.9
13902.7
13797.4
13684.9
13565
13437.5
13302.3
13159.3
13008.5
12849.8
12683.2
12508.9
12326.9
12137.4
11940.5
11736.6
11525.8
11308.7
11085.4
10856.5
10622.5
10383.8
10140.9
9894.56
9645.26
9393.65
9140.39
8886.16
8631.62
8377.48
8124.42
7873.12
7624.28
7378.55
7136.58
6899.01
6666.43
6439.42
6218.51
6004.21
5796.97
5597.22
5405.34
5221.65
5046.45
4879.97
4722.41
4573.91
4434.57
4304.45
4183.57
4071.89
3969.35
3875.85
3791.24
3715.36
3648
3588.93
3537.91
3494.66
3458.89
3430.29
3408.54
3393.3
3384.23
3380.98
3383.2
3390.53
3402.61
3419.09
3439.61
3463.82
3491.37
3521.91
3555.11
3590.62
3628.11
3667.24
3707.65
3748.93
3790.58
3831.93
3871.95
3908.95
3939.95
3959.48
3957.37
3914.32
3793.37
3522.48
2957.32
1792.48
333.536
2435
15000
15000
15000
15000
15000
15000
14999.9
14999.9
14999.9
14999.9
14999.9
14999.9
14999.8
14999.8
14999.8
14999.8
14999.8
14999.8
14999.8
14999.8
14999.8
14999.8
14999.8
14999.9
14999.9
14999.9
14999.9
14999.9
14999.9
14999.9
14999.9
14999.9
15000
15000
15000
15000
15000
15000
15000
14999.9
14999.9
14999.9
14999.9
14999.9
14999.8
14999.8
14999.7
14999.7
14999.6
14999.5
14999.3
14999.2
14999
14998.8
14998.5
14998.2
14997.7
14997.3
14996.7
14996
14995.1
14994.1
14992.9
14991.5
14989.8
14987.9
14985.6
14982.9
14979.8
14976.2
14971.9
14967
14961.4
14954.9
14947.5
14938.9
14929.2
14918.1
14905.5
14891.3
14875.2
14857
14836.6
14813.8
14788.3
14759.9
14728.3
14693.3
14654.6
14611.9
14564.9
14513.4
14457.1
14395.6
14328.7
14256.1
14177.4
14092.5
14001.1
13902.8
13797.5
13685
13565.1
13437.7
13302.5
13159.5
13008.7
12850
12683.5
12509.1
12327.1
12137.6
11940.7
11736.8
11526.1
11308.9
11085.6
10856.7
10622.7
10384
10141.1
9894.72
9645.39
9393.76
9140.48
8886.22
8631.65
8377.47
8124.38
7873.04
7624.15
7378.38
7136.36
6898.74
6666.1
6439.03
6218.06
6003.69
5796.38
5596.57
5404.61
5220.85
5045.57
4879.01
4721.37
4572.78
4433.36
4303.16
4182.19
4070.43
3967.8
3874.21
3789.52
3713.55
3646.11
3586.96
3535.85
3492.52
3456.67
3427.99
3406.16
3390.84
3381.7
3378.38
3380.53
3387.79
3399.81
3416.24
3436.7
3460.85
3488.35
3518.85
3552
3587.48
3624.94
3664.03
3704.41
3745.67
3787.3
3828.64
3868.66
3905.69
3936.75
3956.47
3954.84
3913.14
3796.23
3538.6
3021.35
2046.29
488.553
2435
15000
15000
15000
15000
15000
14999.9
14999.9
14999.9
14999.9
14999.8
14999.8
14999.8
14999.8
14999.7
14999.7
14999.7
14999.7
14999.7
14999.7
14999.7
14999.7
14999.8
14999.8
14999.8
14999.8
14999.8
14999.8
14999.9
14999.9
14999.9
14999.9
14999.9
14999.9
14999.9
14999.9
15000
15000
15000
14999.9
14999.9
14999.9
14999.9
14999.9
14999.9
14999.8
14999.8
14999.7
14999.7
14999.6
14999.5
14999.3
14999.2
14999
14998.8
14998.5
14998.2
14997.7
14997.3
14996.7
14996
14995.1
14994.1
14992.9
14991.5
14989.9
14987.9
14985.6
14982.9
14979.8
14976.2
14971.9
14967
14961.4
14954.9
14947.5
14938.9
14929.2
14918.1
14905.5
14891.3
14875.2
14857.1
14836.7
14813.9
14788.4
14760
14728.4
14693.4
14654.7
14612
14565.1
14513.6
14457.3
14395.8
14328.9
14256.3
14177.6
14092.7
14001.3
13903.1
13797.8
13685.3
13565.5
13438
13302.8
13159.9
13009.1
12850.4
12683.9
12509.5
12327.5
12138
11941.2
11737.2
11526.5
11309.3
11086
10857.1
10623.1
10384.3
10141.4
9895.02
9645.66
9393.99
9140.66
8886.34
8631.71
8377.46
8124.29
7872.88
7623.9
7378.03
7135.92
6898.19
6665.44
6438.25
6217.15
6002.65
5795.22
5595.26
5403.16
5219.25
5043.82
4877.1
4719.3
4570.55
4430.96
4300.59
4179.45
4067.52
3964.72
3870.96
3786.09
3709.95
3642.34
3583.02
3531.75
3488.26
3452.24
3423.4
3401.42
3385.95
3376.66
3373.2
3375.21
3382.34
3394.24
3410.54
3430.89
3454.94
3482.34
3512.74
3545.81
3581.21
3618.6
3657.63
3697.96
3739.17
3780.76
3822.08
3862.1
3899.16
3930.33
3950.32
3949.35
3909.26
3796.25
3547.76
3049.05
2091.05
476.013
2435
15000
15000
15000
15000
14999.9
14999.9
14999.9
14999.8
14999.8
14999.7
14999.7
14999.6
14999.6
14999.6
14999.6
14999.6
14999.6
14999.6
14999.6
14999.6
14999.6
14999.6
14999.6
14999.7
14999.7
14999.7
14999.8
14999.8
14999.8
14999.8
14999.9
14999.9
14999.9
14999.9
14999.9
14999.9
14999.9
14999.9
14999.9
14999.9
14999.9
14999.9
14999.9
14999.9
14999.8
14999.8
14999.7
14999.7
14999.6
14999.5
14999.3
14999.2
14999
14998.8
14998.5
14998.2
14997.7
14997.3
14996.7
14996
14995.1
14994.1
14992.9
14991.5
14989.9
14987.9
14985.6
14982.9
14979.8
14976.2
14972
14967.1
14961.4
14954.9
14947.5
14939
14929.2
14918.2
14905.6
14891.3
14875.3
14857.1
14836.8
14814
14788.5
14760.1
14728.5
14693.5
14654.9
14612.2
14565.3
14513.8
14457.5
14396
14329.2
14256.6
14178
14093.1
14001.7
13903.5
13798.2
13685.8
13565.9
13438.5
13303.3
13160.4
13009.6
12851
12684.5
12510.2
12328.2
12138.7
11941.8
11737.9
11527.1
11309.9
11086.7
10857.7
10623.6
10384.9
10142
9895.48
9646.06
9394.32
9140.92
8886.52
8631.8
8377.46
8124.17
7872.64
7623.53
7377.52
7135.26
6897.37
6664.46
6437.09
6215.81
6001.12
5793.48
5593.31
5401
5216.87
5041.2
4874.25
4716.21
4567.22
4427.38
4296.76
4175.37
4063.18
3960.13
3866.11
3780.99
3704.59
3636.72
3577.15
3525.63
3481.89
3445.63
3416.56
3394.34
3378.65
3369.14
3365.46
3367.27
3374.21
3385.92
3402.04
3422.22
3446.11
3473.36
3503.63
3536.57
3571.85
3609.13
3648.07
3688.32
3729.46
3771
3812.28
3852.29
3889.39
3920.67
3940.93
3940.57
3901.79
3791.44
3547.87
3056.42
2103.4
471.764
2435
15000
15000
15000
14999.9
14999.9
14999.8
14999.7
14999.7
14999.6
14999.5
14999.5
14999.4
14999.4
14999.3
14999.3
14999.3
14999.3
14999.3
14999.3
14999.3
14999.4
14999.4
14999.5
14999.5
14999.6
14999.6
14999.6
14999.7
14999.7
14999.8
14999.8
14999.8
14999.9
14999.9
14999.9
14999.9
14999.9
14999.9
14999.9
14999.9
14999.9
14999.9
14999.9
14999.9
14999.8
14999.8
14999.7
14999.7
14999.6
14999.5
14999.3
14999.2
14999
14998.8
14998.5
14998.2
14997.7
14997.3
14996.7
14996
14995.1
14994.1
14992.9
14991.5
14989.9
14987.9
14985.6
14983
14979.8
14976.2
14972
14967.1
14961.5
14955
14947.5
14939
14929.3
14918.2
14905.7
14891.4
14875.3
14857.2
14836.9
14814.1
14788.6
14760.3
14728.7
14693.7
14655.1
14612.4
14565.5
14514.1
14457.8
14396.4
14329.5
14257
14178.4
14093.6
14002.2
13904
13798.8
13686.4
13566.6
13439.1
13304
13161.1
13010.4
12851.8
12685.3
12511
12329
12139.5
11942.7
11738.7
11528
11310.8
11087.5
10858.6
10624.4
10385.6
10142.6
9896.1
9646.6
9394.78
9141.28
8886.77
8631.93
8377.45
8124.02
7872.33
7623.05
7376.86
7134.4
6896.3
6663.17
6435.57
6214.04
5999.1
5791.19
5590.75
5398.15
5213.72
5037.76
4870.5
4712.13
4562.82
4422.66
4291.7
4169.98
4057.45
3954.05
3859.69
3774.23
3697.5
3629.29
3569.39
3517.54
3473.47
3436.89
3407.5
3384.97
3368.98
3359.18
3355.23
3356.77
3363.44
3374.9
3390.79
3410.74
3434.42
3461.47
3491.55
3524.32
3559.45
3596.59
3635.41
3675.54
3716.58
3758.05
3799.28
3839.27
3876.39
3907.77
3928.27
3928.41
3890.6
3781.98
3541.09
3052.22
2094.66
468.786
2435
15000
15000
14999.9
14999.9
14999.8
14999.7
14999.6
14999.5
14999.3
14999.2
14999.1
14999.1
14999
14998.9
14998.9
14998.9
14998.9
14998.9
14999
14999
14999.1
14999.1
14999.2
14999.3
14999.3
14999.4
14999.5
14999.5
14999.6
14999.7
14999.7
14999.8
14999.8
14999.8
14999.9
14999.9
14999.9
14999.9
14999.9
14999.9
14999.9
14999.9
14999.9
14999.9
14999.8
14999.8
14999.7
14999.7
14999.6
14999.5
14999.4
14999.2
14999
14998.8
14998.5
14998.2
14997.8
14997.3
14996.7
14996
14995.1
14994.1
14992.9
14991.5
14989.9
14987.9
14985.6
14983
14979.8
14976.2
14972
14967.1
14961.5
14955
14947.6
14939.1
14929.4
14918.3
14905.7
14891.5
14875.5
14857.4
14837
14814.3
14788.8
14760.5
14728.9
14694
14655.3
14612.7
14565.9
14514.4
14458.2
14396.8
14330
14257.5
14178.9
14094.1
14002.8
13904.7
13799.5
13687.1
13567.3
13440
13304.9
13162
13011.3
12852.7
12686.3
12512
12330.1
12140.6
11943.8
11739.8
11529.1
11311.9
11088.6
10859.6
10625.4
10386.5
10143.5
9896.87
9647.29
9395.36
9141.74
8887.09
8632.1
8377.46
8123.85
7871.96
7622.47
7376.05
7133.35
6895
6661.59
6433.7
6211.87
5996.61
5788.37
5587.59
5394.63
5209.84
5033.5
4865.86
4707.1
4557.39
4416.82
4285.45
4163.31
4050.36
3946.55
3851.76
3765.88
3688.72
3620.1
3559.78
3507.52
3463.04
3426.07
3396.29
3373.38
3357.01
3346.85
3342.55
3343.75
3350.1
3361.25
3376.84
3396.52
3419.93
3446.73
3476.58
3509.14
3544.07
3581.03
3619.69
3659.69
3700.62
3741.99
3783.15
3823.1
3860.22
3891.68
3912.38
3912.93
3875.89
3768.69
3530.47
3047.76
2110.99
469.684
2435
15000
14999.9
14999.9
14999.8
14999.6
14999.5
14999.3
14999.1
14998.9
14998.8
14998.6
14998.5
14998.4
14998.4
14998.3
14998.3
14998.3
14998.4
14998.4
14998.5
14998.6
14998.7
14998.8
14998.9
14999
14999.1
14999.2
14999.3
14999.4
14999.5
14999.6
14999.7
14999.7
14999.8
14999.8
14999.8
14999.9
14999.9
14999.9
14999.9
14999.9
14999.9
14999.9
14999.9
14999.8
14999.8
14999.7
14999.7
14999.6
14999.5
14999.4
14999.2
14999
14998.8
14998.5
14998.2
14997.8
14997.3
14996.7
14996
14995.1
14994.1
14992.9
14991.5
14989.9
14987.9
14985.7
14983
14979.9
14976.2
14972
14967.2
14961.5
14955.1
14947.6
14939.1
14929.4
14918.4
14905.8
14891.6
14875.6
14857.5
14837.2
14814.4
14789
14760.7
14729.2
14694.3
14655.7
14613.1
14566.2
14514.9
14458.6
14397.3
14330.5
14258
14179.6
14094.8
14003.5
13905.4
13800.3
13688
13568.3
13441
13305.9
13163.1
13012.5
12853.9
12687.5
12513.3
12331.3
12141.9
11945
11741.1
11530.4
11313.1
11089.8
10860.8
10626.6
10387.6
10144.5
9897.8
9648.11
9396.06
9142.29
8887.49
8632.33
8377.49
8123.67
7871.55
7621.81
7375.12
7132.13
6893.47
6659.73
6431.5
6209.32
5993.68
5785.05
5583.86
5390.49
5205.26
5028.48
4860.38
4701.16
4550.97
4409.91
4278.06
4155.42
4041.97
3937.66
3842.37
3755.99
3678.33
3609.21
3548.39
3495.64
3450.69
3413.24
3382.99
3359.63
3342.82
3332.23
3327.51
3328.3
3334.27
3345.05
3360.28
3379.62
3402.72
3429.23
3458.8
3491.1
3525.8
3562.55
3601.02
3640.85
3681.63
3722.88
3763.95
3803.85
3840.96
3872.48
3893.35
3894.25
3857.87
3751.94
3516.21
3038.63
2110.73
471.455
2435
15000
14999.9
14999.8
14999.6
14999.4
14999.2
14998.9
14998.6
14998.4
14998.1
14997.9
14997.8
14997.7
14997.6
14997.5
14997.5
14997.6
14997.6
14997.7
14997.8
14998
14998.1
14998.3
14998.4
14998.6
14998.7
14998.9
14999
14999.2
14999.3
14999.4
14999.5
14999.6
14999.7
14999.7
14999.8
14999.8
14999.8
14999.9
14999.9
14999.9
14999.9
14999.9
14999.8
14999.8
14999.8
14999.7
14999.7
14999.6
14999.5
14999.4
14999.2
14999
14998.8
14998.5
14998.2
14997.8
14997.3
14996.7
14996
14995.1
14994.1
14993
14991.6
14989.9
14988
14985.7
14983
14979.9
14976.3
14972.1
14967.2
14961.6
14955.1
14947.7
14939.2
14929.5
14918.5
14906
14891.8
14875.7
14857.7
14837.4
14814.7
14789.3
14761
14729.5
14694.6
14656
14613.5
14566.7
14515.3
14459.2
14397.9
14331.2
14258.7
14180.3
14095.6
14004.4
13906.3
13801.3
13689
13569.4
13442.1
13307.1
13164.4
13013.8
12855.3
12688.9
12514.7
12332.8
12143.4
11946.6
11742.6
11531.9
11314.6
11091.3
10862.2
10627.9
10388.9
10145.7
9898.9
9649.08
9396.89
9142.96
8887.98
8632.61
8377.55
8123.48
7871.1
7621.07
7374.07
7130.75
6891.74
6657.63
6429.01
6206.41
5990.34
5781.27
5579.61
5385.75
5200.03
5022.73
4854.1
4694.34
4543.61
4402
4269.58
4146.37
4032.35
3927.46
3831.59
3744.62
3666.39
3596.69
3535.31
3481.99
3436.48
3398.48
3367.7
3343.81
3326.48
3315.39
3310.19
3310.52
3316.03
3326.38
3341.21
3360.16
3382.89
3409.05
3438.3
3470.31
3504.73
3541.23
3579.48
3619.11
3659.72
3700.83
3741.79
3781.62
3818.71
3850.27
3871.28
3872.48
3836.68
3731.74
3497.45
3020.84
2090.06
468.493
2435
15000
14999.9
14999.7
14999.4
14999.1
14998.7
14998.4
14998
14997.6
14997.3
14997
14996.8
14996.6
14996.5
14996.5
14996.5
14996.5
14996.6
14996.8
14996.9
14997.1
14997.3
14997.6
14997.8
14998
14998.2
14998.5
14998.7
14998.9
14999
14999.2
14999.3
14999.4
14999.5
14999.6
14999.7
14999.8
14999.8
14999.8
14999.8
14999.9
14999.9
14999.9
14999.8
14999.8
14999.8
14999.7
14999.7
14999.6
14999.5
14999.4
14999.2
14999
14998.8
14998.5
14998.2
14997.8
14997.3
14996.7
14996
14995.1
14994.2
14993
14991.6
14989.9
14988
14985.7
14983
14979.9
14976.3
14972.1
14967.3
14961.7
14955.2
14947.8
14939.3
14929.6
14918.6
14906.1
14891.9
14875.9
14857.9
14837.6
14814.9
14789.5
14761.3
14729.8
14695
14656.4
14613.9
14567.2
14515.9
14459.8
14398.5
14331.9
14259.5
14181.1
14096.5
14005.3
13907.4
13802.4
13690.2
13570.6
13443.4
13308.5
13165.8
13015.2
12856.8
12690.5
12516.3
12334.5
12145.1
11948.3
11744.4
11533.6
11316.3
11092.9
10863.8
10629.5
10390.4
10147.1
9900.16
9650.21
9397.85
9143.75
8888.56
8632.96
8377.65
8123.31
7870.62
7620.28
7372.93
7129.24
6889.83
6655.3
6426.24
6203.18
5986.62
5777.04
5574.86
5380.46
5194.17
5016.3
4847.08
4686.72
4535.36
4393.13
4260.07
4136.22
4021.55
3916.01
3819.49
3731.87
3652.98
3582.63
3520.6
3466.65
3420.51
3381.89
3350.5
3326.01
3308.11
3296.45
3290.7
3290.5
3295.5
3305.36
3319.72
3338.23
3360.54
3386.31
3415.2
3446.86
3480.97
3517.19
3555.18
3594.58
3635
3675.95
3716.77
3756.51
3793.56
3825.15
3846.28
3847.77
3812.52
3708.51
3475.59
3000.13
2064.64
465.146
2435
15000
14999.8
14999.6
14999.2
14998.7
14998.2
14997.7
14997.2
14996.7
14996.2
14995.8
14995.5
14995.3
14995.2
14995.1
14995.1
14995.2
14995.4
14995.6
14995.8
14996.1
14996.4
14996.7
14997
14997.3
14997.6
14997.9
14998.2
14998.4
14998.7
14998.9
14999.1
14999.2
14999.4
14999.5
14999.6
14999.7
14999.7
14999.8
14999.8
14999.8
14999.8
14999.8
14999.8
14999.8
14999.8
14999.7
14999.7
14999.6
14999.5
14999.4
14999.2
14999
14998.8
14998.5
14998.2
14997.8
14997.3
14996.7
14996
14995.2
14994.2
14993
14991.6
14989.9
14988
14985.7
14983.1
14980
14976.4
14972.2
14967.3
14961.7
14955.3
14947.9
14939.4
14929.7
14918.7
14906.2
14892.1
14876.1
14858.1
14837.9
14815.2
14789.8
14761.6
14730.2
14695.4
14656.9
14614.4
14567.7
14516.5
14460.5
14399.3
14332.7
14260.4
14182.1
14097.5
14006.4
13908.5
13803.6
13691.5
13572
13444.9
13310
13167.4
13016.9
12858.5
12692.2
12518.1
12336.3
12146.9
11950.2
11746.3
11535.5
11318.2
11094.8
10865.7
10631.2
10392.1
10148.6
9901.59
9651.49
9398.96
9144.65
8889.24
8633.4
8377.81
8123.16
7870.15
7619.44
7371.71
7127.61
6887.77
6652.78
6423.23
6199.66
5982.57
5772.43
5569.66
5374.66
5187.75
5009.24
4839.37
4678.34
4526.3
4383.37
4249.61
4125.05
4009.66
3903.39
3806.15
3717.81
3638.19
3567.12
3504.38
3449.72
3402.88
3363.57
3331.5
3306.35
3287.8
3275.51
3269.15
3268.36
3272.8
3282.11
3295.95
3313.96
3335.81
3361.13
3389.61
3420.89
3454.64
3490.54
3528.24
3567.39
3607.58
3648.34
3689.02
3728.64
3765.64
3797.24
3818.5
3820.29
3785.62
3682.75
3452.03
2981.37
2061.87
466.439
2435
15000
14999.8
14999.4
14998.9
14998.3
14997.6
14996.9
14996.2
14995.6
14995
14994.5
14994.1
14993.8
14993.6
14993.5
14993.6
14993.7
14993.9
14994.1
14994.4
14994.8
14995.2
14995.6
14996
14996.4
14996.8
14997.2
14997.6
14997.9
14998.3
14998.5
14998.8
14999
14999.2
14999.3
14999.5
14999.6
14999.7
14999.7
14999.8
14999.8
14999.8
14999.8
14999.8
14999.8
14999.8
14999.7
14999.7
14999.6
14999.5
14999.4
14999.2
14999
14998.8
14998.5
14998.2
14997.8
14997.3
14996.7
14996
14995.2
14994.2
14993
14991.6
14990
14988
14985.8
14983.1
14980
14976.4
14972.2
14967.4
14961.8
14955.4
14948
14939.5
14929.9
14918.9
14906.4
14892.3
14876.3
14858.3
14838.1
14815.5
14790.2
14762
14730.6
14695.9
14657.4
14615
14568.4
14517.2
14461.2
14400.1
14333.6
14261.3
14183.1
14098.6
14007.6
13909.8
13805
13692.9
13573.5
13446.5
13311.7
13169.2
13018.7
12860.4
12694.2
12520.2
12338.4
12149
11952.3
11748.4
11537.6
11320.3
11096.9
10867.7
10633.2
10393.9
10150.4
9903.2
9652.93
9400.21
9145.69
8890.03
8633.92
8378.03
8123.06
7869.68
7618.59
7370.45
7125.9
6885.58
6650.09
6420.01
6195.88
5978.21
5767.46
5564.06
5368.4
5180.82
5001.61
4831.03
4669.26
4516.48
4372.8
4238.27
4112.93
3996.76
3889.7
3791.67
3702.53
3622.12
3550.27
3486.74
3431.3
3383.69
3343.63
3310.82
3284.94
3265.68
3252.7
3245.67
3244.23
3248.04
3256.75
3270.02
3287.48
3308.81
3333.65
3361.67
3392.52
3425.89
3461.43
3498.81
3537.66
3577.61
3618.15
3658.66
3698.15
3735.07
3766.69
3788.07
3790.18
3756.2
3654.78
3427.29
2964.5
2063.78
473.367
2435
15000
14999.7
14999.3
14998.6
14997.9
14997
14996.1
14995.2
14994.4
14993.6
14993
14992.5
14992.1
14991.9
14991.8
14991.8
14991.9
14992.1
14992.5
14992.9
14993.3
14993.8
14994.3
14994.9
14995.4
14995.9
14996.4
14996.9
14997.3
14997.7
14998.1
14998.4
14998.7
14998.9
14999.2
14999.3
14999.5
14999.6
14999.6
14999.7
14999.8
14999.8
14999.8
14999.8
14999.8
14999.8
14999.7
14999.7
14999.6
14999.5
14999.4
14999.2
14999
14998.8
14998.5
14998.2
14997.8
14997.3
14996.7
14996
14995.2
14994.2
14993
14991.6
14990
14988.1
14985.8
14983.1
14980
14976.5
14972.3
14967.4
14961.9
14955.4
14948.1
14939.6
14930
14919
14906.6
14892.5
14876.5
14858.6
14838.4
14815.8
14790.5
14762.4
14731.1
14696.4
14658
14615.6
14569.1
14517.9
14462
14401
14334.5
14262.4
14184.2
14099.8
14008.9
13911.2
13806.5
13694.5
13575.2
13448.2
13313.5
13171.1
13020.7
12862.5
12696.3
12522.4
12340.6
12151.3
11954.6
11750.7
11540
11322.7
11099.2
10869.9
10635.3
10396
10152.3
9904.97
9654.53
9401.61
9146.86
8890.94
8634.54
8378.33
8123
7869.25
7617.74
7369.15
7124.12
6883.29
6647.27
6416.62
6191.89
5973.58
5762.18
5558.1
5361.74
5173.43
4993.48
4822.12
4659.57
4505.99
4361.48
4226.13
4099.95
3982.93
3875.02
3776.13
3686.14
3604.88
3532.17
3467.79
3411.52
3363.08
3322.2
3288.58
3261.91
3241.88
3228.15
3220.38
3218.24
3221.37
3229.43
3242.07
3258.94
3279.7
3304
3331.52
3361.91
3394.85
3430
3467.02
3505.55
3545.22
3585.52
3625.83
3665.18
3702.02
3733.63
3755.13
3757.58
3724.33
3624.34
3399.6
2941.8
2050.14
477.158
2435
15000
14999.7
14999.1
14998.4
14997.5
14996.5
14995.4
14994.3
14993.3
14992.3
14991.5
14990.9
14990.4
14990
14989.9
14989.9
14990
14990.3
14990.6
14991.1
14991.7
14992.3
14992.9
14993.6
14994.2
14994.9
14995.5
14996.1
14996.7
14997.2
14997.6
14998
14998.4
14998.7
14998.9
14999.1
14999.3
14999.5
14999.6
14999.7
14999.7
14999.8
14999.8
14999.8
14999.8
14999.7
14999.7
14999.6
14999.6
14999.5
14999.4
14999.2
14999
14998.8
14998.5
14998.2
14997.8
14997.3
14996.7
14996
14995.2
14994.2
14993
14991.6
14990
14988.1
14985.8
14983.2
14980.1
14976.5
14972.3
14967.5
14962
14955.5
14948.2
14939.8
14930.2
14919.2
14906.8
14892.7
14876.8
14858.9
14838.7
14816.2
14790.9
14762.8
14731.6
14696.9
14658.6
14616.3
14569.8
14518.7
14462.9
14401.9
14335.6
14263.5
14185.4
14101.1
14010.3
13912.7
13808.1
13696.2
13576.9
13450.1
13315.5
13173.2
13022.9
12864.7
12698.7
12524.7
12343.1
12153.8
11957.1
11753.3
11542.5
11325.2
11101.6
10872.3
10637.7
10398.2
10154.4
9906.93
9656.3
9403.17
9148.17
8891.98
8635.27
8378.72
8123.02
7868.86
7616.91
7367.84
7122.31
6880.94
6644.34
6413.08
6187.71
5968.74
5756.64
5551.84
5354.73
5165.64
4984.89
4812.71
4649.32
4494.88
4349.51
4213.27
4086.19
3968.27
3859.45
3759.65
3668.74
3586.56
3512.94
3447.66
3390.48
3341.15
3299.39
3264.91
3237.4
3216.53
3202
3193.44
3190.54
3192.93
3200.29
3212.25
3228.47
3248.62
3272.35
3299.32
3329.21
3361.68
3396.39
3433.02
3471.21
3510.56
3550.6
3590.69
3629.88
3666.61
3698.21
3719.84
3722.64
3690.12
3591.48
3368.89
2912.79
2011.3
474.065
2435
15000
14999.6
14999.1
14998.3
14997.2
14996.1
14994.8
14993.6
14992.3
14991.2
14990.2
14989.4
14988.7
14988.3
14988
14987.9
14988.1
14988.3
14988.8
14989.3
14989.9
14990.6
14991.4
14992.2
14993
14993.8
14994.5
14995.2
14995.9
14996.5
14997.1
14997.6
14998
14998.4
14998.7
14999
14999.2
14999.3
14999.5
14999.6
14999.7
14999.7
14999.7
14999.8
14999.8
14999.7
14999.7
14999.6
14999.6
14999.5
14999.4
14999.2
14999
14998.8
14998.5
14998.2
14997.8
14997.3
14996.7
14996
14995.2
14994.2
14993
14991.7
14990
14988.1
14985.9
14983.2
14980.1
14976.6
14972.4
14967.6
14962
14955.7
14948.3
14939.9
14930.3
14919.4
14907
14892.9
14877.1
14859.2
14839.1
14816.5
14791.4
14763.3
14732.1
14697.5
14659.2
14617
14570.6
14519.6
14463.8
14403
14336.7
14264.7
14186.8
14102.5
14011.8
13914.3
13809.8
13698
13578.9
13452.1
13317.7
13175.4
13025.2
12867.1
12701.1
12527.3
12345.7
12156.5
11959.8
11756
11545.2
11327.9
11104.3
10874.9
10640.2
10400.6
10156.7
9909.06
9658.24
9404.88
9149.63
8893.15
8636.12
8379.21
8123.12
7868.53
7616.12
7366.55
7120.48
6878.54
6641.33
6409.44
6183.4
5963.72
5750.89
5545.32
5347.41
5157.51
4975.91
4802.87
4638.59
4483.25
4336.95
4199.77
4071.75
3952.87
3843.09
3742.32
3650.43
3567.28
3492.69
3426.45
3368.31
3318.04
3275.35
3239.94
3211.53
3189.78
3174.38
3164.99
3161.27
3162.89
3169.48
3180.72
3196.25
3215.74
3238.85
3265.24
3294.58
3326.54
3360.79
3396.99
3434.8
3473.81
3513.56
3553.41
3592.4
3629.02
3660.6
3682.35
3685.52
3653.81
3556.82
3337.62
2889.54
2015.16
476.333
2411.61
15000
14999.6
14999
14998.2
14997.1
14995.9
14994.5
14993.1
14991.6
14990.3
14989.1
14988.1
14987.3
14986.7
14986.3
14986.2
14986.2
14986.5
14986.9
14987.5
14988.2
14989
14989.9
14990.8
14991.7
14992.6
14993.5
14994.3
14995.1
14995.9
14996.5
14997.1
14997.6
14998.1
14998.4
14998.7
14999
14999.2
14999.4
14999.5
14999.6
14999.7
14999.7
14999.7
14999.7
14999.7
14999.7
14999.6
14999.6
14999.5
14999.4
14999.2
14999
14998.8
14998.5
14998.2
14997.8
14997.3
14996.7
14996
14995.2
14994.2
14993.1
14991.7
14990.1
14988.1
14985.9
14983.3
14980.2
14976.6
14972.5
14967.7
14962.1
14955.8
14948.4
14940.1
14930.5
14919.6
14907.2
14893.2
14877.3
14859.5
14839.4
14816.9
14791.8
14763.8
14732.7
14698.1
14659.9
14617.8
14571.4
14520.5
14464.8
14404.1
14337.9
14266
14188.1
14104
14013.4
13916
13811.6
13700
13580.9
13454.3
13319.9
13177.8
13027.7
12869.7
12703.8
12530
12348.5
12159.3
11962.7
11758.9
11548.2
11330.8
11107.2
10877.8
10642.9
10403.2
10159.2
9911.37
9660.35
9406.76
9151.25
8894.47
8637.1
8379.82
8123.32
7868.28
7615.38
7365.3
7118.67
6876.13
6638.29
6405.72
6178.98
5958.57
5744.96
5538.6
5339.86
5149.1
4966.61
4792.66
4627.46
4471.16
4323.89
4185.74
4056.72
3936.83
3826.03
3724.24
3631.34
3547.17
3471.55
3404.29
3345.15
3293.88
3250.2
3213.83
3184.46
3161.78
3145.46
3135.19
3130.6
3131.38
3137.17
3147.64
3162.44
3181.23
3203.67
3229.43
3258.19
3289.6
3323.35
3359.1
3396.49
3435.13
3474.56
3514.14
3552.93
3589.41
3620.95
3642.83
3646.39
3615.58
3520.5
3305.4
2866.2
2008.74
491.461
2382.27
15000
14999.6
14999
14998.2
14997.1
14995.8
14994.4
14992.8
14991.3
14989.8
14988.4
14987.2
14986.2
14985.5
14984.9
14984.7
14984.6
14984.8
14985.2
14985.8
14986.6
14987.4
14988.4
14989.4
14990.4
14991.5
14992.5
14993.4
14994.3
14995.2
14995.9
14996.6
14997.2
14997.7
14998.2
14998.5
14998.8
14999.1
14999.3
14999.4
14999.5
14999.6
14999.7
14999.7
14999.7
14999.7
14999.7
14999.6
14999.6
14999.5
14999.4
14999.2
14999
14998.8
14998.5
14998.2
14997.8
14997.3
14996.7
14996.1
14995.2
14994.3
14993.1
14991.7
14990.1
14988.2
14985.9
14983.3
14980.3
14976.7
14972.6
14967.8
14962.2
14955.9
14948.6
14940.2
14930.7
14919.8
14907.4
14893.5
14877.6
14859.8
14839.8
14817.4
14792.3
14764.3
14733.3
14698.8
14660.7
14618.6
14572.3
14521.5
14465.9
14405.2
14339.1
14267.4
14189.6
14105.6
14015.1
13917.8
13813.5
13702
13583.1
13456.6
13322.3
13180.3
13030.3
12872.4
12706.6
12532.9
12351.5
12162.4
11965.8
11762
11551.3
11333.9
11110.3
10880.8
10645.9
10406.1
10161.9
9913.87
9662.64
9408.81
9153.02
8895.93
8638.21
8380.55
8123.62
7868.12
7614.73
7364.1
7116.89
6873.73
6635.23
6401.97
6174.5
5953.32
5738.91
5531.71
5332.11
5140.46
4957.05
4782.16
4615.98
4458.7
4310.42
4171.24
4041.18
3920.25
3808.39
3705.53
3611.56
3526.32
3449.64
3381.32
3321.12
3268.8
3224.09
3186.69
3156.32
3132.66
3115.39
3104.18
3098.69
3098.58
3103.53
3113.18
3127.2
3145.24
3166.98
3192.08
3220.21
3251.04
3284.26
3319.51
3356.46
3394.7
3433.78
3473.06
3511.62
3547.95
3579.44
3601.44
3605.39
3575.48
3482.3
3271.1
2840.05
2000.52
494.877
2300.21
15000
14999.6
14999.1
14998.3
14997.2
14995.9
14994.4
14992.9
14991.2
14989.6
14988.1
14986.7
14985.5
14984.6
14983.9
14983.5
14983.4
14983.5
14983.8
14984.4
14985.2
14986
14987.1
14988.1
14989.3
14990.4
14991.5
14992.6
14993.6
14994.5
14995.4
14996.1
14996.8
14997.4
14997.9
14998.3
14998.7
14998.9
14999.2
14999.3
14999.5
14999.6
14999.6
14999.7
14999.7
14999.7
14999.7
14999.6
14999.6
14999.5
14999.4
14999.2
14999
14998.8
14998.5
14998.2
14997.8
14997.3
14996.8
14996.1
14995.2
14994.3
14993.1
14991.7
14990.1
14988.2
14986
14983.4
14980.3
14976.8
14972.6
14967.9
14962.4
14956
14948.7
14940.4
14930.9
14920
14907.7
14893.7
14878
14860.2
14840.2
14817.8
14792.8
14764.9
14733.9
14699.5
14661.4
14619.4
14573.2
14522.5
14467
14406.4
14340.5
14268.8
14191.2
14107.3
14016.9
13919.7
13815.6
13704.2
13585.4
13459
13324.9
13182.9
13033.1
12875.3
12709.6
12536
12354.6
12165.6
11969.1
11765.3
11554.6
11337.2
11113.5
10884
10649
10409
10164.7
9916.54
9665.1
9411.03
9154.96
8897.55
8639.47
8381.41
8124.05
7868.07
7614.16
7362.97
7115.16
6871.37
6632.19
6398.22
6169.99
5948.02
5732.79
5524.73
5324.23
5131.65
4947.3
4771.42
4604.24
4445.93
4296.61
4156.37
4025.24
3903.21
3790.26
3686.29
3591.21
3504.86
3427.07
3357.64
3296.35
3242.94
3197.15
3158.69
3127.28
3102.59
3084.32
3072.12
3065.68
3064.66
3068.71
3077.51
3090.7
3107.96
3128.96
3153.35
3180.82
3211.04
3243.68
3278.41
3314.88
3352.7
3391.4
3430.36
3468.66
3504.81
3536.24
3558.33
3562.65
3533.58
3442.04
3233.79
2807.48
1972.46
482.743
2254.32
15000
14999.7
14999.1
14998.4
14997.4
14996.1
14994.7
14993.1
14991.4
14989.8
14988.1
14986.6
14985.3
14984.2
14983.4
14982.8
14982.6
14982.6
14982.8
14983.3
14984.1
14984.9
14986
14987.1
14988.3
14989.5
14990.7
14991.8
14992.9
14993.9
14994.9
14995.7
14996.4
14997.1
14997.6
14998.1
14998.5
14998.8
14999.1
14999.3
14999.4
14999.5
14999.6
14999.7
14999.7
14999.7
14999.7
14999.6
14999.6
14999.5
14999.4
14999.2
14999
14998.8
14998.5
14998.2
14997.8
14997.3
14996.8
14996.1
14995.3
14994.3
14993.1
14991.8
14990.2
14988.3
14986
14983.4
14980.4
14976.8
14972.7
14968
14962.5
14956.1
14948.9
14940.6
14931.1
14920.2
14908
14894
14878.3
14860.6
14840.6
14818.3
14793.3
14765.5
14734.6
14700.2
14662.2
14620.3
14574.2
14523.6
14468.2
14407.7
14341.8
14270.3
14192.8
14109
14018.8
13921.7
13817.7
13706.5
13587.8
13461.5
13327.5
13185.7
13036
12878.3
12712.7
12539.2
12357.9
12168.9
11972.5
11768.8
11558
11340.6
11116.9
10887.3
10652.3
10412.2
10167.7
9919.38
9667.74
9413.41
9157.05
8899.32
8640.88
8382.41
8124.61
7868.14
7613.7
7361.94
7113.52
6869.07
6629.2
6394.49
6165.48
5942.7
5726.62
5517.68
5316.26
5122.74
4937.4
4760.52
4592.31
4432.95
4282.55
4141.21
4008.97
3885.82
3771.74
3666.63
3570.4
3482.91
3403.97
3333.4
3270.97
3216.43
3169.52
3129.97
3097.47
3071.71
3052.4
3039.19
3031.75
3029.77
3032.89
3040.79
3053.13
3069.57
3089.78
3113.44
3140.21
3169.78
3201.81
3235.98
3271.94
3309.3
3347.6
3386.21
3424.23
3460.18
3491.52
3513.68
3518.34
3490.01
3399.81
3193.61
2769.26
1933.04
475.877
2243.68
15000
14999.7
14999.2
14998.5
14997.6
14996.5
14995.1
14993.5
14991.9
14990.2
14988.5
14986.9
14985.5
14984.3
14983.3
14982.6
14982.2
14982.1
14982.3
14982.7
14983.3
14984.2
14985.2
14986.3
14987.5
14988.7
14990
14991.2
14992.4
14993.4
14994.4
14995.3
14996.1
14996.8
14997.4
14997.9
14998.4
14998.7
14999
14999.2
14999.4
14999.5
14999.6
14999.6
14999.7
14999.7
14999.7
14999.6
14999.6
14999.5
14999.4
14999.2
14999
14998.8
14998.5
14998.2
14997.8
14997.3
14996.8
14996.1
14995.3
14994.3
14993.2
14991.8
14990.2
14988.3
14986.1
14983.5
14980.4
14976.9
14972.8
14968.1
14962.6
14956.3
14949
14940.7
14931.3
14920.5
14908.2
14894.3
14878.7
14861
14841.1
14818.8
14793.9
14766.1
14735.2
14701
14663.1
14621.3
14575.3
14524.7
14469.4
14409.1
14343.3
14271.9
14194.5
14110.9
14020.7
13923.8
13819.9
13708.8
13590.3
13464.2
13330.3
13188.6
13039
12881.5
12716
12542.6
12361.4
12172.5
11976.1
11772.4
11561.7
11344.3
11120.5
10890.9
10655.7
10415.6
10170.9
9922.41
9670.54
9415.96
9159.32
8901.25
8642.44
8383.56
8125.3
7868.34
7613.35
7361.01
7111.97
6866.85
6626.27
6390.81
6161.01
5937.4
5720.45
5510.61
5308.26
5113.76
4927.42
4749.51
4580.25
4419.8
4268.31
4125.85
3992.47
3868.17
3752.92
3646.65
3549.25
3460.57
3380.46
3308.71
3245.11
3189.41
3141.35
3100.66
3067.04
3040.18
3019.79
3005.52
2997.06
2994.08
2996.24
3003.21
3014.65
3030.23
3049.63
3072.51
3098.56
3127.44
3158.83
3192.41
3227.83
3264.7
3302.56
3340.8
3378.52
3414.24
3445.46
3467.68
3472.63
3445.01
3356.18
3152.33
2731.7
1899.75
470.952
2269.89
15000
14999.7
14999.3
14998.7
14997.9
14996.8
14995.6
14994.1
14992.5
14990.9
14989.2
14987.6
14986.1
14984.8
14983.7
14982.9
14982.3
14982.1
14982.1
14982.5
14983
14983.8
14984.8
14985.9
14987
14988.3
14989.5
14990.8
14992
14993.1
14994.1
14995.1
14995.9
14996.6
14997.3
14997.8
14998.2
14998.6
14998.9
14999.1
14999.3
14999.5
14999.6
14999.6
14999.7
14999.7
14999.7
14999.6
14999.6
14999.5
14999.4
14999.2
14999
14998.8
14998.5
14998.2
14997.8
14997.4
14996.8
14996.1
14995.3
14994.3
14993.2
14991.8
14990.2
14988.3
14986.1
14983.5
14980.5
14977
14972.9
14968.2
14962.7
14956.4
14949.2
14940.9
14931.5
14920.7
14908.5
14894.7
14879
14861.4
14841.6
14819.3
14794.5
14766.8
14736
14701.8
14664
14622.2
14576.3
14525.9
14470.7
14410.5
14344.8
14273.5
14196.3
14112.8
14022.8
13926
13822.3
13711.3
13592.9
13466.9
13333.2
13191.7
13042.2
12884.8
12719.4
12546.1
12365
12176.1
11979.8
11776.1
11565.5
11348.1
11124.3
10894.6
10659.3
10419.1
10174.3
9925.59
9673.51
9418.68
9161.74
8903.34
8644.15
8384.86
8126.14
7868.67
7613.14
7360.21
7110.53
6864.73
6623.43
6387.21
6156.61
5932.16
5714.33
5503.56
5300.26
5104.77
4917.42
4738.46
4568.12
4406.57
4253.96
4110.35
3975.82