<?xml version="1.0"?>
<VTKFile type="PolyData" version="0.1" byte_order="LittleEndian">
  <PolyData>
    <Piece NumberOfPoints="50000" NumberOfVerts="50000" NumberOfLines="0" NumberOfStrips="0" NumberOfPolys="0">
      <Points>
        <DataArray type="Float32" NumberOfComponents="3" format="ascii">
0.373969 0.00775124 0
-0.355442 0.00260533 0
0.362402 -0.0026771 0
0.378424 -0.00220707 0
-0.309296 0.00578216 0
-0.25988 0.00192854 0
0.124407 -0.0244026 0
-0.319568 -9.91354e-05 0
0.109741 -0.0190499 0
-0.0253853 0.00830534 0
0.28427 -0.0119951 0
0.360945 0.00704204 0
-0.208357 0.00649686 0
-0.148034 -0.0229886 0
-0.388306 0.00204683 0
0.293107 0.011262 0
-0.0543725 -0.00211306 0
0.375351 0.00131414 0
0.14222 0.00117579 0
-0.35592 0.00338813 0
-0.372888 0.00508891 0
0.325283 0.00611505 0
-0.368079 0.00230503 0
0.365932 -0.000239531 0
0.233091 -0.0120738 0
0.272608 0.0119144 0
-0.365046 -0.00715754 0
0.375821 -0.00340395 0
-0.261416 0.0219133 0
-0.384219 0.00843371 0
-0.289275 0.0112182 0
-0.268966 -0.0155606 0
0.372243 0.000524423 0
0.374728 -0.0012018 0
0.0712442 0.00466665 0
0.381028 -0.00175776 0
0.115587 0.00124819 0
-0.381004 0.00230766 0
-0.356638 -0.00498818 0
-0.396371 -0.00242145 0
0.274797 0.0121394 0
0.290459 0.00558886 0
-0.363937 -0.0022611 0
0.369883 0.000437266 0
0.383311 0.00101554 0
-0.374765 0.00812299 0
0.364452 0.00441435 0
0.186834 -0.0141644 0
0.359814 0.000105566 0
0.368376 -5.01185e-05 0
0.15441 0.0200118 0
-0.367401 -0.00101942 0
-0.255521 0.00877255 0
0.363584 0.00253302 0
-0.361722 0.00226577 0
-0.385594 0.00240736 0
0.374429 -0.00139678 0
0.151113 0.0107567 0
0.280021 0.00693578 0
0.386573 -0.00477992 0
0.315674 0.00432118 0
0.378417 0.00229242 0
0.0833226 -0.0302344 0
0.386536 -0.00183483 0
-0.124715 0.0157733 0
-0.360618 0.00135051 0
0.367373 -0.00102174 0
0.377435 -0.000767466 0
0.390412 0.00362446 0
0.270235 0.000776621 0
-0.364896 0.00307109 0
0.366862 0.00334736 0
0.20036 0.00101511 0
0.204817 0.0062702 0
0.17464 0.00471652 0
-0.370223 -0.00231491 0
0.320768 0.0115608 0
-0.351523 0.00407417 0
0.282903 0.00631501 0
-0.384761 0.00156618 0
-0.194056 -0.0315298 0
-0.376925 0.00415525 0
0.346841 0.00463705 0
-0.36638 0.000659749 0
0.386097 -0.00456782 0
-0.367349 0.00315168 0
0.386767 -0.00447937 0
-0.165389 -0.00795274 0
-0.160029 0.021418 0
-0.370487 -0.00658504 0
0.363556 0.00609314 0
-0.362406 -0.000523262 0
0.365382 -0.00178517 0
-0.249916 0.0182261 0
-0.0378344 -0.0203414 0
-0.326074 0.00494672 0
0.364692 0.00800113 0
-0.373643 0.00309089 0
-0.394137 0.00689432 0
-0.390912 -0.000893166 0
-0.327779 -0.00697971 0
-0.363759 -0.00518497 0
0.389309 -0.000686091 0
-0.157711 -0.0191581 0
0.392065 -0.000562375 0
0.320964 0.0117228 0
0.236153 0.00617001 0
0.0188197 0.00730896 0
0.360355 0.0041428 0
-0.36865 -0.00424071 0
-0.278092 0.0182816 0
-0.374021 0.00300707 0
-0.319248 0.00982168 0
275.042 397.863 0
0.245784 0.00678637 0
-0.368624 0.00337748 0
-0.382249 0.00417016 0
7.06464 9.66418 0
-0.371302 0.00159733 0
-0.0190202 -0.0080617 0
0.375963 -0.00137638 0
-0.358169 -0.00345329 0
0.253708 -0.00327279 0
-0.342503 0.00691732 0
0.369031 -0.00068821 0
0.358679 -0.000928103 0
0.117833 0.022153 0
0.379106 0.0040525 0
-0.332136 -0.00633852 0
0.286112 -0.000874062 0
0.381267 -0.0029875 0
0.378217 -0.000429971 0
-0.392558 0.000751688 0
-0.327502 0.00379328 0
0.387334 -0.00171787 0
0.368148 -0.0010002 0
0.355016 -0.00263147 0
-0.0592474 0.00291591 0
0.29684 -0.0131304 0
0.288791 -0.0110359 0
0.296714 -0.0133423 0
0.352135 0.00888933 0
0.380475 -0.00318484 0
-0.0885355 -0.0129238 0
-0.380553 0.00628103 0
0.252666 -0.0208475 0
-0.243822 0.0185688 0
-0.375421 0.00189107 0
-0.268535 -0.0183849 0
-0.376599 0.00345758 0
0.287143 0.00682916 0
0.365679 0.00207064 0
-0.114509 -0.0109223 0
0.29779 -0.0095582 0
0.296129 0.00772951 0
0.362607 0.00357067 0
0.248299 -0.00899171 0
-0.369034 0.00261633 0
-0.159415 -0.00552807 0
0.379396 -0.000396074 0
0.253477 -0.00155009 0
-0.334909 -0.00272921 0
-0.362586 0.00236989 0
-0.376988 0.00243089 0
-0.0976679 0.00924998 0
0.292256 -0.0058858 0
0.330346 -0.00521065 0
0.334614 0.00338147 0
0.279724 0.00730045 0
-0.155095 0.000534402 0
0.390764 -0.00458775 0
-0.361426 0.00290789 0
-0.0859634 -0.00546864 0
0.377655 0.00397749 0
-0.0691917 -0.00321078 0
-0.291956 0.0145601 0
-0.362403 0.00233015 0
-0.220644 -0.0102195 0
-0.367395 -0.00214022 0
-0.368996 -0.00608939 0
0.362072 -0.000134138 0
-0.373233 0.00596391 0
-0.367566 0.00503325 0
0.373797 0.00490413 0
0.36468 -0.0009008 0
0.281996 -0.0160691 0
0.391597 -0.00322766 0
0.387475 0.000348281 0
0.375696 -0.00348079 0
0.0418863 0.0273764 0
0.382103 -0.00345091 0
0.309445 -0.0084958 0
-0.249267 -0.0170269 0
0.344426 0.005908 0
-0.341575 0.00590157 0
0.361999 0.00156183 0
-0.304385 0.0108728 0
-0.324327 0.0049128 0
-0.363916 0.00357849 0
0.366552 0.00453107 0
-0.243238 0.0175545 0
0.38647 0.00246391 0
0.335239 -0.00511642 0
-0.0766203 -0.00659765 0
0.391399 -0.00468194 0
-0.358669 -0.007423 0
0.05083 0.0443294 0
0.155123 -0.00620449 0
-0.324837 0.00991742 0
-0.228969 -0.00945022 0
0.358458 0.000480198 0
-0.159819 -0.0194802 0
0.3378 -0.00344721 0
-0.313945 0.0102095 0
-0.21532 -0.0146858 0
-0.376917 0.00562644 0
-0.371892 0.00714184 0
0.371547 -0.000329514 0
-0.382306 -0.00132158 0
-0.045106 0.0194628 0
-0.294147 0.0108688 0
-0.381526 0.00336002 0
-0.354273 -0.00595815 0
0.38814 -0.00279883 0
0.137415 0.0228737 0
-0.36262 0.00280973 0
0.39019 0.00099574 0
0.374319 -0.000837325 0
-0.322348 0.00904258 0
-0.379991 -0.000574413 0
-0.373951 -0.00358165 0
0.364132 0.00388888 0
0.189771 0.0218738 0
-0.0578932 0.013894 0
-0.387035 0.00409543 0
-0.333258 0.00544951 0
0.286369 -0.0163198 0
-0.293388 -0.00417598 0
-0.369875 0.00307064 0
0.2268 -0.00276857 0
0.383019 -9.52822e-05 0
-0.339602 -0.00633189 0
-0.374126 0.00310747 0
-0.216545 -0.0130531 0
0.187035 0.00630127 0
0.334469 0.00382823 0
-0.353268 0.00650911 0
0.374634 -0.00083472 0
0.385732 0.00241134 0
0.221187 0.0116061 0
0.230727 0.00401651 0
-0.351804 0.00467146 0
0.361961 -0.00278835 0
-0.166616 -0.00877014 0
-0.340345 0.0075281 0
0.362491 -0.000323601 0
-0.329883 0.00734059 0
0.320871 0.0082986 0
0.13905 0.0216891 0
0.200622 0.000201674 0
0.385546 0.000786846 0
-0.351674 0.00451104 0
0.0703733 -0.00770662 0
0.0351592 -0.0130189 0
-0.250912 0.00314346 0
-0.369356 0.00095821 0
-0.363746 0.00268594 0
-0.361199 -0.00132802 0
0.371327 -0.0010189 0
0.368475 -0.000809917 0
0.379557 -0.000949109 0
-0.372661 -0.00269153 0
0.243522 0.00280493 0
0.0200411 0.0115382 0
-0.38921 0.00464528 0
-0.378445 0.00209675 0
0.360639 -0.000430781 0
-0.361713 0.00276404 0
0.35812 0.00598555 0
-0.366972 -0.00138217 0
-0.355879 -0.000164159 0
-0.164867 -0.0213151 0
-0.372811 0.00225615 0
0.352126 -0.00209512 0
-0.316876 0.0099206 0
-0.356942 -0.00302209 0
-0.141735 0.0184177 0
-0.37171 0.00300633 0
-0.377591 0.003501 0
0.317591 -0.00293154 0
-0.132647 0.00625684 0
0.370809 -0.000940671 0
0.378945 -0.00276841 0
0.241602 0.0128427 0
0.384938 0.00301384 0
0.365418 0.00569094 0
0.383456 0.00385413 0
-0.255575 0.021585 0
-0.349171 0.00187754 0
-0.388207 0.000830827 0
0.393232 0.000781377 0
-0.0526338 0.00680439 0
0.369573 -0.00170717 0
0.360685 0.00298695 0
0.380564 -0.000762777 0
0.0651387 0.0112669 0
-0.195959 0.0231561 0
0.320465 0.00492919 0
-0.0449913 0.000329529 0
-0.182449 0.00862783 0
-0.305363 0.0106709 0
0.370672 0.00610002 0
-0.270372 0.0134414 0
0.343104 -0.00503834 0
0.282746 -0.00445934 0
-0.386931 0.00579663 0
0.301633 -0.0136916 0
0.389189 -0.00489419 0
0.348007 -0.00286046 0
0.3719 0.00679942 0
-0.377494 0.00495609 0
-0.0828691 0.0139089 0
0.379523 0.00186245 0
0.377761 -0.000943538 0
0.174286 0.0229282 0
-0.360216 -0.000437172 0
-0.353407 0.00463954 0
0.388896 0.000392698 0
-0.361269 -0.00283258 0
0.375068 0.00223993 0
0.377737 -0.00232872 0
0.180871 -0.0217593 0
0.361864 0.00320077 0
-0.370761 0.00305388 0
-0.317217 -0.000595597 0
-0.213064 -0.0023799 0
0.0298669 -0.00721722 0
0.0450335 -0.0272489 0
-0.340106 0.00310172 0
0.168248 -0.0241589 0
-0.0397354 0.0375508 0
-0.382815 0.00562594 0
-0.273611 0.0126007 0
-0.373712 0.00411148 0
-0.154954 -0.0126141 0
0.377516 0.00630425 0
-0.265692 0.014158 0
-0.378259 -5.63703e-05 0
-60.5936 250.629 0
0.376686 -0.00492926 0
0.375692 -0.00108753 0
-0.308301 0.0130909 0
0.36526 0.00269186 0
0.346526 -0.000987854 0
-542.176 -969.595 0
0.115162 0.0135267 0
-0.374388 0.00344343 0
-0.311331 -0.00230438 0
0.373031 0.00322602 0
3.8362 -7.9029 0
0.353082 0.00457978 0
-0.366414 -0.00556615 0
-0.233997 0.000226125 0
-0.372116 -0.00303728 0
-0.379376 0.00624244 0
0.370242 -0.000984463 0
-0.385299 -0.00132898 0
-0.334069 0.0084835 0
0.290554 0.0116047 0
-0.363093 5.8e-05 0
-0.302643 0.0131045 0
-0.335741 0.00759666 0
0.374093 0.00386643 0
0.337308 -0.00650054 0
-0.223599 0.01763 0
0.38459 -0.00196953 0
-0.374568 -0.00522272 0
-0.348459 -0.0033672 0
-0.378614 0.001182 0
0.0326959 -0.0288823 0
-0.364514 -0.00493902 0
0.368979 0.00390086 0
-0.371523 0.00341685 0
-0.369519 0.00185596 0
-0.091129 0.014 0
0.241617 0.0126681 0
-0.120888 0.0337654 0
0.0794872 0.0191097 0
-0.374874 0.00363762 0
-0.067854 0.003349 0
-0.37556 -0.000880352 0
-0.377498 0.00510432 0
0.360637 -0.00543782 0
0.317703 0.00871251 0
-0.353182 0.00595273 0
0.33515 0.00448767 0
0.332905 0.001239 0
-0.360217 0.00284936 0
-0.198903 -0.00655803 0
0.263361 -0.0159806 0
-0.360651 0.000796316 0
0.318951 -0.00826676 0
0.146002 -0.00445408 0
-0.370703 -0.000900785 0
0.346482 -0.000582915 0
0.364486 -0.00216854 0
0.370143 -0.00439168 0
0.377089 -0.00146045 0
0.383492 1.36715e-05 0
0.363446 0.00636521 0
-0.373121 0.00258954 0
0.268207 0.00896249 0
-0.30829 -0.00465203 0
0.176152 0.0247762 0
-0.351293 0.00255148 0
-0.125555 -0.00516332 0
-0.291362 0.0109118 0
0.106303 -0.0129798 0
-0.380885 0.00364708 0
0.363934 -0.00100276 0
-0.102703 0.0274171 0
0.130306 0.0144354 0
-0.386007 0.00316096 0
0.366579 0.0017311 0
0.377863 -0.00064169 0
0.360934 0.00799077 0
0.38588 -0.00433775 0
-0.368032 0.00304575 0
[...]
      <PointData Scalars="T">
        <DataArray type="Float32" Name="T" format="ascii" NumberOfComponents="1">
314.406
425.316
313.874
313.874
425.316
425.316
313.874
438.447
313.874
425.316
313.874
314.406
425.316
438.447
425.316
314.406
438.447
303.873
302.82
425.316
425.316
314.406
425.316
313.874
313.874
314.406
438.447
313.874
425.316
425.316
425.316
438.447
304.685
313.874
314.406
313.874
302.844
425.316
438.447
438.447
314.406
314.406
438.447
306.684
301.412
425.316
314.406
313.874
319.522
313.874
314.406
438.447
425.316
314.406
425.316
425.316
313.874
314.406
314.406
313.874
314.406
314.406
313.874
313.874
425.316
753.417
313.874
313.874
314.406
302.326
425.316
314.406
301.412
314.406
314.406
438.447
314.406
425.316
314.406
679.225
438.447
425.316
314.406
673.594
313.874
425.316
313.874
438.447
425.316
438.447
314.406
438.447
313.874
425.316
438.447
425.316
314.406
425.316
425.316
438.447
438.447
438.447
313.874
438.447
313.874
314.406
314.406
314.406
314.406
438.447
425.316
425.316
425.316
314.406
314.406
425.316
425.316
314.406
687.626
438.447
313.874
438.447
313.874
425.316
313.874
313.874
314.406
314.406
438.447
313.874
313.874
313.874
778.821
425.316
313.874
313.874
313.874
425.316
313.874
313.874
313.874
314.406
313.874
438.447
425.316
313.874
425.316
663.627
438.447
425.316
314.406
314.406
438.447
313.874
314.406
314.406
313.874
425.316
438.447
313.874
313.874
438.447
425.316
425.316
425.316
313.874
313.874
314.406
314.406
689.68
313.874
425.316
438.447
314.406
438.447
425.316
425.316
438.447
438.447
438.447
313.874
425.316
425.316
314.406
313.874
313.874
313.874
309.757
313.874
314.406
313.874
313.874
438.447
314.406
425.316
308.557
425.316
425.316
425.316
314.406
425.316
314.406
313.874
438.447
313.874
438.447
314.406
313.874
425.316
438.447
305.745
438.447
313.874
425.316
438.447
425.316
425.316
313.874
438.447
425.316
425.316
425.316
438.447
313.874
314.406
425.316
301.423
313.874
425.316
438.447
438.447
314.406
314.406
425.316
425.316
425.316
313.874
438.447
425.316
313.874
313.874
438.447
425.316
438.447
314.406
314.406
425.316
313.874
314.406
314.406
314.406
425.316
313.874
438.447
425.316
313.874
425.316
314.406
314.406
313.522
302.102
425.316
313.874
313.874
425.316
717.01
425.316
438.447
313.874
313.874
313.874
438.447
314.406
314.406
425.316
425.316
313.874
425.316
314.406
438.447
438.447
438.447
425.316
313.874
425.316
438.447
425.316
425.316
425.316
313.874
425.316
313.874
313.874
314.406
314.406
314.406
314.406
425.316
665.029
709.528
302.102
425.316
313.874
314.406
313.874
314.406
425.316
314.406
662.177
425.316
425.316
314.406
425.316
313.874
313.874
425.316
313.874
313.874
313.874
314.406
425.316
425.316
322.249
313.874
314.406
438.447
425.316
307.852
438.447
314.406
313.874
313.874
314.406
425.316
438.447
438.447
313.874
313.874
425.316
313.874
425.316
425.316
425.316
425.316
438.447
314.406
425.316
438.447
425.316
313.874
313.874
425.316
314.406
313.874
438.447
314.406
425.316
438.447
314.406
313.874
314.406
438.447
670.474
438.447
425.316
313.874
438.447
425.316
314.406
709.895
425.316
425.316
314.406
313.874
425.316
313.874
438.447
438.447
753.836
313.874
438.447
314.406
425.316
663.219
425.316
314.406
425.316
314.406
425.316
425.316
438.447
425.316
313.874
314.406
425.316
314.406
302.892
425.316
438.447
313.874
695.76
313.874
313.874
438.447
313.874
313.874
313.874
313.874
318.451
314.406
425.316
314.406
438.447
314.406
425.316
438.447
425.316
313.874
425.316
313.874
425.316
314.406
425.316
315.739
313.874
314.406
313.874
425.316
425.316
313.874
425.316
314.406
425.316
314.406
746.887
438.447
425.316
425.316
314.406
303.319
425.316
313.874
649.394
438.447
438.447
425.316
438.447
314.406
313.874
438.447
314.406
438.447
438.447
313.874
313.874
438.447
425.316
679.5
438.447
303.454
438.447
311.909
425.316
438.447
313.874
314.406
438.447
438.447
425.316
425.316
314.406
674.385
313.874
313.874
314.406
425.316
425.316
425.316
313.874
314.406
691.355
438.447
438.447
425.316
303.011
314.406
313.874
301.599
425.316
314.406
314.406
301.41
425.316
314.406
313.874
438.447
313.874
425.316
425.316
425.316
438.447
438.447
438.447
438.447
438.447
313.874
313.874
313.874
314.406
313.874
314.406
314.406
438.447
314.406
425.316
313.874
314.406
425.316
314.406
425.316
682.855
425.316
679.325
314.406
313.874
314.406
313.874
313.874
313.874
425.316
314.406
314.406
647.306
314.406
659.974
425.316
438.447
313.874
313.874
425.316
425.316
438.447
438.447
438.447
314.406
314.406
318.976
314.406
438.447
425.316
314.406
425.316
305.745
314.406
438.447
425.316
313.874
425.316
314.406
314.406
438.447
314.406
438.447
313.874
740.14
425.316
302.729
313.874
438.447
438.447
703.649
425.316
425.316
314.406
313.874
313.874
302.663
314.406
438.447
678.651
438.447
438.447
425.316
314.406
313.874
425.316
314.406
438.447
301.428
314.406
312.615
425.316
314.406
438.447
750.551
314.406
313.874
438.447
314.406
425.316
313.874
313.874
314.406
313.874
438.447
438.447
425.316
790.225
314.406
438.447
313.874
438.447
438.447
314.406
313.874
438.447
438.447
425.316
425.316
313.874
313.874
425.316
438.447
438.447
314.406
313.874
425.316
425.316
313.874
313.874
314.406
314.406
425.316
438.447
438.447
438.447
438.447
314.406
425.316
314.406
314.406
438.447
425.316
313.874
313.874
438.447
425.316
313.874
438.447
438.447
425.316
313.874
438.447
425.316
314.406
425.316
425.316
313.874
314.406
425.316
314.406
313.874
425.316
314.406
313.874
425.316
425.316
313.874
313.874
313.874
314.406
314.406
438.447
438.447
425.316
425.316
314.406
425.316
438.447
304.146
314.406
425.316
425.316
425.316
313.874
314.406
314.406
314.406
425.316
313.874
313.874
725.731
425.316
314.406
313.874
314.406
314.406
314.406
425.316
314.406
314.406
313.874
425.316
314.406
425.316
313.874
314.406
313.874
314.406
313.874
425.316
318.976
713.353
314.406
425.316
425.316
425.316
313.874
438.447
314.406
425.316
313.874
314.406
438.447
313.874
711.476
438.447
438.447
425.316
425.316
425.316
313.874
313.874
313.874
313.874
313.874
669.058
314.406
425.316
438.447
313.874
313.874
425.316
303.454
425.316
314.406
425.316
425.316
425.316
438.447
438.447
304.146
425.316
314.406
425.316
438.447
425.316
438.447
438.447
313.874
314.406
313.874
425.316
438.447
425.316
665.029
438.447
425.316
438.447
314.406
425.316
438.447
313.874
313.874
313.874
425.316
425.316
438.447
314.406
438.447
302.86
425.316
438.447
438.447
314.406
313.874
314.406
307.725
313.874
425.316
425.316
313.874
425.316
314.406
425.316
314.406
425.316
438.447
314.406
425.316
306.2
425.316
425.316
313.874
302.82
438.447
314.406
313.874
305.128
314.406
425.316
438.447
438.447
314.406
425.316
307.325
314.406
313.874
313.874
438.447
425.316
309.66
425.316
425.316
313.874
313.874
314.406
313.874
425.316
438.447
314.406
425.316
314.406
314.406
425.316
425.316
314.406
765.24
313.874
313.874
425.316
425.316
313.874
304.104
425.316
438.447
438.447
314.406
305.633
680.165
425.316
425.316
677.61
438.447
313.874
425.316
313.874
425.316
313.874
313.874
690.192
313.874
425.316
314.406
313.874
425.316
438.447
314.406
313.874
314.406
314.406
314.406
314.406
425.316
314.406
313.874
438.447
313.874
314.406
425.316
313.874
313.874
314.406
425.316
425.316
438.447
313.874
438.447
313.874
438.447
425.316
425.316
314.406
438.447
438.447
438.447
313.874
733.847
425.316
313.874
314.406
438.447
438.447
313.874
425.316
313.874
313.874
438.447
314.406
438.447
314.406
313.874
314.406
313.874
314.406
314.406
425.316
314.406
313.874
313.874
425.316
313.874
438.447
425.316
438.447
313.874
314.406
425.316
438.447
425.316
313.874
425.316
425.316
313.874
313.874
314.406
314.406
425.316
425.316
313.874
425.316
314.406
425.316
438.447
306.662
438.447
313.874
425.316
438.447
425.316
425.316
425.316
674.566
438.447
425.316
425.316
314.406
699.191
313.874
313.874
313.874
313.874
314.406
425.316
313.874
425.316
314.406
425.316
314.406
314.406
438.447
314.406
425.316
313.874
314.406
313.874
438.447
313.874
425.316
303.357
438.447
438.447
314.406
438.447
425.316
425.316
438.447
313.874
314.406
314.406
314.406
438.447
313.874
438.447
313.874
309.658
314.406
314.406
314.406
313.874
313.874
438.447
314.406
314.406
438.447
425.316
313.874
425.316
301.41
425.316
438.447
425.316
674.385
438.447
425.316
314.406
438.447
314.406
425.316
313.874
425.316
314.406
425.316
425.316
314.406
314.406
425.316
313.874
314.406
313.874
305.477
438.447
425.316
438.447
783.024
313.874
425.316
314.475
425.316
425.316
313.874
313.874
425.316
314.406
313.874
313.874
313.874
425.316
313.874
314.406
425.316
425.316
425.316
438.447
425.316
313.874
425.316
313.874
438.447
315.066
313.874
314.406
425.316
438.447
438.447
425.316
313.874
314.406
438.447
313.874
302.432
438.447
438.447
313.874
425.316
303.873
313.874
314.406
438.447
425.316
425.316
425.316
314.406
730.958
314.406
675.827
425.316
313.874
314.406
314.406
313.874
314.406
438.447
718.846
438.447
425.316
313.874
314.406
314.406
314.406
314.406
314.406
438.447
425.316
425.316
425.316
438.447
425.316
425.316
315.758
313.874
313.874
313.874
313.874
425.316
313.874
425.316
304.294
438.447
425.316
314.406
425.316
771.755
313.874
760.479
313.874
313.874
313.874
313.874
314.406
314.406
313.874
314.406
438.447
301.428
663.627
314.406
314.406
313.874
438.447
313.874
438.447
314.406
314.406
314.406
314.406
425.316
313.874
425.316
314.406
313.874
313.874
741.95
742.112
737.488
313.874
313.874
438.447
314.406
425.316
314.406
313.874
438.447
425.316
668.711
313.874
314.406
425.316
313.874
425.316
314.406
425.316
425.316
652.57
425.316
313.874
313.874
438.447
425.316
425.316
425.316
313.874
438.447
314.406
425.316
314.406
314.406
425.316
425.316
314.406
425.316
313.874
313.874
313.874
425.316
306.079
313.874
438.447
425.316
313.874
425.316
313.874
425.316
425.316
313.874
438.447
438.447
313.874
313.874
314.406
313.874
314.406
438.447
314.406
314.406
425.316
425.316
313.874
425.316
314.406
301.412
674.385
425.316
314.406
742.265
664.136
302.257
313.874
438.447
425.316
313.874
425.316
699.191
438.447
438.447
425.316
313.874
313.874
425.316
425.316
313.874
438.447
313.874
314.406
314.406
425.316
425.316
313.874
664.136
314.406
425.316
314.406
313.874
665.01
313.874
313.874
438.447
425.316
438.447
438.447
425.316
425.316
425.316
425.316
314.406
313.874
313.874
425.316
313.874
425.316
425.316
313.874
425.316
425.316
314.406
425.316
438.447
313.874
438.447
438.447
314.406
425.316
314.406
314.406
313.874
313.874
425.316
314.406
305.617
425.316
425.316
314.406
425.316
425.316
312.19
313.874
313.874
438.447
313.874
425.316
307.617
313.874
724.516
425.316
425.316
313.874
313.874
425.316
425.316
425.316
438.447
314.406
438.447
313.874
438.447
438.447
313.874
314.406
313.874
438.447
314.406
313.874
314.406
687.651
313.874
714.789
438.447
425.316
425.316
670.474
438.447
438.447
314.406
314.406
438.447
425.316
425.316
313.874
425.316
425.316
425.316
438.447
438.447
313.874
313.874
314.406
425.316
314.406
314.406
313.874
438.447
313.874
313.885
314.406
303.563
314.406
425.316
722.741
730.466
425.316
425.316
313.874
438.447
438.447
314.406
425.316
438.447
425.316
676.394
425.316
425.316
438.447
313.874
438.447
438.447
425.316
438.447
425.316
313.874
438.447
425.316
313.874
313.874
313.874
438.447
438.447
425.316
314.406
425.316
438.447
309.66
425.316
425.316
425.316
314.406
425.316
314.406
314.406
313.874
438.447
313.874
306.019
438.447
725.004
313.874
314.406
438.447
425.316
425.316
313.874
425.316
438.447
425.316
314.406
314.406
313.874
314.406
438.447
425.316
425.316
313.874
314.406
425.316
314.406
314.406
438.447
438.447
438.447
314.406
314.406
314.406
425.316
314.406
718.276
314.406
425.316
425.316
663.219
314.406
313.874
313.874
313.874
438.447
313.874
313.874
690.192
425.316
314.406
314.406
313.874
425.316
313.874
425.316
313.874
314.406
313.874
302.909
438.447
425.316
438.447
314.406
313.874
313.874
313.874
425.316
314.406
425.316
314.406
313.874
314.406
438.447
316.335
425.316
314.406
314.406
313.874
438.447
313.874
313.874
313.874
313.874
314.406
718.846
314.406
313.874
425.316
438.447
438.447
659.076
425.316
425.316
660.396
425.316
313.874
313.874
438.447
314.406
425.316
425.316
425.316
313.874
438.447
438.447
314.406
313.874
314.406
314.406
314.406
663.219
314.406
314.406
313.874
314.406
425.316
306.894
702.666
438.447
438.447
313.874
438.447
425.316
425.316
425.316
425.316
425.316
737.488
425.316
314.406
314.406
313.874
425.316
313.874
425.316
313.874
314.406
425.316
301.707
319.275
314.406
314.406
313.874
679.5
313.874
302.899
425.316
314.406
425.316
314.406
425.316
313.874
313.874
425.316
425.316
438.447
425.316
438.447
425.316
313.874
313.874
313.874
438.447
314.406
425.316
313.874
438.447
314.406
425.316
425.316
438.447
425.316
313.874
313.874
438.447
313.874
314.406
438.447
425.316
313.874
314.406
425.316
314.406
314.406
313.874
313.874
313.874
438.447
425.316
438.447
438.447
314.406
313.874
314.406
302.86
313.874
425.316
742.345
438.447
313.874
302.746
313.874
313.874
425.316
313.874
314.406
314.406
314.406
313.874
314.406
425.316
425.316
425.316
314.406
425.316
425.316
313.874
302.03
313.874
301.308
425.316
314.406
425.316
314.406
314.406
425.316
313.874
438.447
438.447
438.447
313.874
438.447
438.447
425.316
438.447
438.447
425.316
438.447
438.447
690.702
313.874
425.316
425.316
314.406
314.406
313.874
313.874
314.406
425.316
425.316
314.406
438.447
438.447
314.406
425.316
438.447
320.075
314.406
313.874
425.316
425.316
313.874
425.316
425.316
313.874
438.447
302.713
319.275
313.874
313.874
425.316
425.316
425.316
313.874
425.316
425.316
425.316
425.316
438.447
425.316
314.406
438.447
425.316
425.316
314.406
425.316
313.874
425.316
676.8
314.406
425.316
438.447
313.874
313.874
438.447
438.447
732.957
313.874
672.962
425.316
664.136
438.447
425.316
438.447
438.447
314.406
313.874
438.447
425.316
313.874
314.406
313.874
438.447
313.874
313.874
314.406
314.406
425.316
438.447
425.316
425.316
314.406
425.316
314.406
425.316
438.447
438.447
313.874
301.263
438.447
425.316
313.874
689.68
314.406
313.874
314.406
313.874
313.874
314.406
425.316
438.447
438.447
425.316
313.874
313.874
438.447
313.874
677.478
425.316
425.316
438.447
425.316
314.406
313.874
425.316
438.447
314.406
314.406
425.316
313.874
425.316
313.874
313.874
313.874
425.316
314.406
313.874
313.874
314.406
438.447
301.311
438.447
438.447
313.874
313.874
438.447
425.316
314.406
313.874
313.874
438.447
438.447
425.316
314.406
314.406
438.447
314.406
313.874
718.846
313.874
314.406
425.316
438.447
438.447
425.316
425.316
691.836
425.316
425.316
314.406
438.447
302.03
438.447
438.447
314.406
665.029
425.316
425.316
438.447
313.874
425.316
438.447
314.406
425.316
674.457
425.316
314.406
313.874
314.406
313.874
438.447
438.447
425.316
438.447
425.316
425.316
438.447
425.316
425.316
313.874
314.406
314.406
309.696
304.685
438.447
438.447
314.406
314.406
438.447
438.447
425.316
313.874
663.607
425.316
425.316
313.874
425.316
313.874
314.406
303.663
313.874
425.316
314.406
425.316
425.316
438.447
314.406
425.316
314.406
303.319
314.406
313.874
425.316
438.447
315.185
313.874
302.86
314.406
314.406
313.874
438.447
313.874
313.874
425.316
739.598
425.316
313.874
313.874
313.874
425.316
663.219
425.316
314.406
425.316
314.406
649.394
314.988
313.874
313.874
313.874
425.316
314.406
438.447
313.885
313.874
314.406
425.316
438.447
438.447
425.316
438.447
438.447
317.389
425.316
438.447
313.874
313.874
314.406
425.316
425.316
438.447
438.447
314.406
425.316
438.447
438.447
314.406
425.316
725.004
313.874
425.316
314.406
438.447
313.874
425.316
438.447
314.406
425.316
313.874
438.447
425.316
313.874
314.406
438.447
425.316
425.316
313.874
425.316
438.447
313.874
438.447
314.406
314.406
745.298
314.406
313.874
313.874
313.874
306.662
438.447
313.874
314.406
711.851
314.406
425.316
438.447
438.447
425.316
438.447
313.874
438.447
314.406
314.406
314.406
313.874
314.406
313.874
313.874
314.406
438.447
314.406
314.406
438.447
313.874
313.874
314.406
302.03
438.447
313.874
313.874
438.447
314.406
438.447
438.447
313.874
425.316
425.316
313.874
425.316
314.406
306.662
314.406
313.874
313.874
313.874
313.874
313.874
303.249
425.316
438.447
753.829
314.406
314.475
425.316
313.874
313.874
438.447
313.874
314.406
313.874
313.874
313.874
425.316
314.406
313.874
425.316
313.874
438.447
314.406
313.874
314.406
425.316
438.447
314.406
425.316
425.316
313.874
313.874
313.874
425.316
314.406
301.588
726.105
425.316
313.874
313.874
314.406
438.447
438.447
438.447
313.874
314.406
313.874
438.447
425.316
313.874
314.124
314.406
314.406
313.874
425.316
314.406
438.447
314.406
425.316
425.316
314.406
314.406
425.316
650.756
314.406
438.447
731.523
680.475
707.418
425.316
425.316
438.447
313.874
313.874
438.447
314.406
438.447
314.406
313.874
438.447
313.874
313.874
425.316
313.874
658.193
649.226
425.316
425.316
314.406
314.406
313.874
438.447
313.874
438.447
313.874
313.874
425.316
438.447
425.316
312.19
305.726
314.406
313.874
438.447
313.874
425.316
313.874
425.316
313.874
425.316
425.316
314.406
313.874
438.447
313.874
425.316
314.406
425.316
438.447
438.447
438.447
313.874
425.316
438.447
652.57
438.447
438.447
313.874
425.316
313.874
313.874
314.406
313.874
314.406
313.874
425.316
438.447
654.825
314.406
314.406
425.316
313.874
313.874
313.874
313.874
425.316
425.316
314.406
314.406
313.874
313.874
711.476
301.412
438.447
425.316
425.316
313.874
425.316
302.432
438.447
313.874
425.316
438.447
314.406
425.316
314.406
313.874
314.406
736.074
438.447
317.195
313.874
313.874
313.874
314.406
438.447
314.406
313.874
425.316
313.874
314.406
313.874
438.447
314.406
314.406
438.447
663.915
652.57
317.552
313.874
425.316
425.316
771.755
438.447
313.874
313.874
425.316
438.447
313.874
438.447
425.316
425.316
313.874
314.406
438.447
717.558
438.447
313.874
438.447
438.447
314.406
314.406
314.406
314.406
425.316
438.447
438.447
438.447
314.406
313.874
314.406
313.874
425.316
425.316
425.316
425.316
438.447
425.316
425.316
307.852
314.406
313.874
313.874
438.447
438.447
425.316
425.316
425.316
313.874
672.962
314.406
314.406
313.874
438.447
438.447
313.874
314.406
313.874
438.447
314.406
425.316
425.316
313.874
313.874
313.874
313.874
314.406
314.406
314.406
314.406
313.874
313.874
425.316
313.874
425.316
314.406
425.316
425.316
663.219
313.874
313.874
741.303
314.406
425.316
438.447
425.316
438.447
313.874
425.316
684.596
313.874
301.785
438.447
425.316
425.316
686.161
313.874
313.874
313.874
438.447
302.256
312.615
313.874
740.691
438.447
313.874
314.406
314.406
314.406
313.874
314.406
438.447
313.874
301.308
314.406
425.316
425.316
425.316
425.316
425.316
313.874
438.447
739.867
425.316
425.316
425.316
322.761
318.95
313.874
425.316
313.874
313.874
313.874
313.874
314.406
425.316
425.316
438.447
313.874
425.316
313.874
438.447
313.874
675.148
668.711
425.316
314.406
438.447
438.447
314.406
438.447
308.557
425.316
318.95
314.406
314.406
739.598
314.406
425.316
438.447
313.874
425.316
313.874
313.874
314.406
314.406
314.406
425.316
314.406
722.741
438.447
303.454
438.447
438.447
695.76
313.874
425.316
425.316
425.316
313.874
438.447
425.316
314.406
313.874
313.874
438.447
425.316
301.372
425.316
425.316
314.406
438.447
425.316
438.447
425.316
438.447
425.316
425.316
307.084
314.406
425.316
438.447
313.874
313.874
438.447
425.316
314.406
313.522
314.406
425.316
425.316
313.874
438.447
425.316
438.447
304.685
313.874
313.874
323.572
314.406
314.406
314.406
313.874
425.316
438.447
680.475
676.8
438.447
425.316
314.406
425.316
314.406
314.789
425.316
313.874
314.406
438.447
438.447
305.726
425.316
425.316
314.406
425.316
425.316
425.316
425.316
438.447
425.316
438.447
425.316
425.316
314.406
438.447
438.447
425.316
438.447
314.406
311.991
314.406
314.406
425.316
438.447
313.874
425.316
425.316
438.447
313.874
313.874
425.316
438.447
314.406
313.874
438.447
425.316
438.447
438.447
425.316
313.874
425.316
438.447
314.406
314.406
425.316
438.447
313.874
313.874
425.316
438.447
425.316
425.316
740.691
313.874
314.406
314.406
314.406
314.406
425.316
313.874
313.874
314.406
425.316
438.447
425.316
438.447
314.406
313.874