<?xml version="1.0"?>
<VTKFile type="PolyData" version="0.1" byte_order="LittleEndian">
  <PolyData>
    <Piece NumberOfPoints="50000" NumberOfVerts="50000" NumberOfLines="0" NumberOfStrips="0" NumberOfPolys="0">
      <Points>
        <DataArray type="Float32" NumberOfComponents="3" format="ascii">
0.109324 0.00299268 0
-0.102386 0.00139966 0
0.105605 -6.56508e-05 0
0.110393 8.3972e-05 0
-0.0887697 0.00233226 0
-0.0743962 0.00122367 0
0.0363481 -0.00630037 0
-0.0921484 0.000601384 0
0.0322574 -0.00478795 0
-0.00648664 0.00303697 0
0.0826912 -0.00276335 0
0.105581 0.00279597 0
-0.0595505 0.00254562 0
-0.0417291 -0.00591448 0
-0.111788 0.00123613 0
0.085156 0.00394998 0
-0.0149661 6.89768e-05 0
0.109368 0.00109954 0
0.0417375 0.00103108 0
-0.102419 0.00163155 0
-0.107489 0.00211157 0
0.0946008 0.00246772 0
-0.105878 0.00131838 0
0.106884 0.000657966 0
0.067961 -0.00278979 0
0.0791995 0.00413752 0
-0.104655 -0.00140437 0
0.109742 -0.000256899 0
-0.0745058 0.00697688 0
-0.110709 0.00307674 0
-0.0828857 0.00390785 0
-0.0766748 -0.00380868 0
0.108775 0.000885926 0
0.109247 0.000366949 0
0.0212074 0.00203179 0
0.111186 0.000215165 0
0.034063 0.00104999 0
-0.109955 0.00129713 0
-0.102297 -0.000783986 0
-0.113868 -4.77693e-05 0
0.0798165 0.00420178 0
0.0845394 0.0023132 0
-0.105016 -2.80529e-05 0
0.10809 0.000860278 0
0.111669 0.00101348 0
-0.107974 0.00298676 0
0.106587 0.00202283 0
0.0545418 -0.00338756 0
0.105056 0.000753086 0
0.107594 0.00071321 0
0.0449816 0.00644336 0
-0.106016 0.000333552 0
-0.0731535 0.00320036 0
0.10627 0.00146766 0
-0.104245 0.00129527 0
-0.110999 0.00133913 0
0.109378 0.000327489 0
0.0441754 0.00378889 0
0.0815309 0.00270367 0
0.112855 -0.00065276 0
0.0918911 0.00195115 0
0.110604 0.00140846 0
0.0245772 -0.00796966 0
0.112716 0.000190232 0
-0.0352465 0.0052171 0
-0.104013 0.00102537 0
0.107174 0.000423083 0
0.1099 0.000488684 0
0.113581 0.00176222 0
0.0788058 0.000925726 0
-0.105032 0.0015384 0
0.107197 0.00170391 0
0.0590945 0.00104357 0
0.0597232 0.00251912 0
0.051116 0.00205492 0
-0.106839 -4.44879e-05 0
0.0930856 0.00403298 0
-0.101122 0.00183311 0
0.0823142 0.00252041 0
-0.110731 0.00110114 0
-0.0548058 -0.0083439 0
-0.108597 0.00184409 0
0.101432 0.0020825 0
-0.105689 0.000823273 0
0.112717 -0.000591994 0
-0.105713 0.00156233 0
0.112841 -0.000570858 0
-0.0469746 -0.0016177 0
-0.0453268 0.00683132 0
-0.106952 -0.00129192 0
0.106327 0.00251112 0
-0.104566 0.000478587 0
0.106481 0.000195469 0
-0.0713005 0.00592318 0
-0.0100723 -0.00512254 0
-0.0937274 0.00208916 0
0.10666 0.00306933 0
-0.107595 0.00154166 0
-0.113578 0.0026331 0
-0.112367 0.000393507 0
-0.0938998 -0.00135792 0
-0.104997 -0.00088254 0
0.113443 0.00052311 0
-0.0445506 -0.00482859 0
0.114243 0.000555586 0
0.0931575 0.0040799 0
0.0694707 0.00254274 0
0.005933 0.00275469 0
0.104801 0.00190256 0
-0.106443 -0.000611328 0
-0.0794262 0.00593777 0
-0.107777 0.001514 0
-0.0915573 0.00350086 0
71.2566 103.076 0
0.0716383 0.00266918 0
-0.106121 0.00162761 0
-0.110107 0.00184695 0
1.81466 2.48219 0
-0.107139 0.00109311 0
-0.00465767 -0.00158599 0
0.109785 0.000329879 0
-0.103432 -0.000387344 0
0.0742296 -0.000216697 0
-0.0983951 0.00266029 0
0.107606 0.000515656 0
0.104673 0.000449881 0
0.0344519 0.00704525 0
0.110278 0.0018822 0
-0.0951534 -0.00117339 0
0.0833606 0.000448363 0
0.111213 -0.000140475 0
0.110234 0.000592466 0
-0.112948 0.000865395 0
-0.0940942 0.00175371 0
0.113083 0.000232473 0
0.10752 0.000437858 0
0.103476 -5.30056e-05 0
-0.0163359 0.00151728 0
0.0862703 -0.00308726 0
0.0840442 -0.00248771 0
0.0862354 -0.0031508 0
0.102282 0.00327058 0
0.11107 -0.000194382 0
-0.0247462 -0.00303631 0
-0.109643 0.00245556 0
0.0733266 -0.00529802 0
-0.0695489 0.00602139 0
-0.108086 0.00119209 0
-0.0764293 -0.00460817 0
-0.108471 0.00164255 0
0.0835777 0.00267253 0
0.106826 0.00133073 0
-0.0322633 -0.00246721 0
0.086702 -0.00206228 0
0.086172 0.00293471 0
0.106055 0.00177775 0
0.0724064 -0.00189849 0
-0.106394 0.00139585 0
-0.0452923 -0.000920261 0
0.110787 0.000614415 0
0.0740312 0.000253434 0
-0.0966188 -0.000166903 0
-0.104528 0.00132474 0
-0.108727 0.00133904 0
-0.0274758 0.00334206 0
0.0851718 -0.000998387 0
0.0962477 -0.000802571 0
0.0973637 0.00167986 0
0.0820775 0.00286962 0
-0.0440648 0.000828071 0
0.114001 -0.000601858 0
-0.104156 0.00148477 0
-0.024107 -0.000899972 0
0.110416 0.00189933 0
-0.0191839 -0.00024254 0
-0.0835196 0.00486889 0
-0.104443 0.00131599 0
-0.0627906 -0.00227839 0
-0.105996 7.56517e-06 0
-0.106518 -0.00114703 0
0.10571 0.000683093 0
-0.107655 0.00236045 0
-0.105989 0.00209364 0
0.109267 0.00216177 0
0.106396 0.000457536 0
0.0819328 -0.00393402 0
0.114244 -0.000208819 0
0.112876 0.00082172 0
0.109664 -0.000281999 0
0.0125646 0.00847645 0
0.111489 -0.00027418 0
0.0900926 -0.0017546 0
-0.070928 -0.00422201 0
0.100184 0.00241553 0
-0.0981505 0.00236555 0
0.105753 0.00118164 0
-0.0872364 0.00380547 0
-0.0932283 0.00207953 0
-0.104709 0.00168696 0
0.107197 0.00205732 0
-0.0694062 0.0057303 0
0.11251 0.00142866 0
0.0976545 -0.000774931 0
-0.0213841 -0.00122026 0
0.114149 -0.000629294 0
-0.103536 -0.00153994 0
0.0149474 0.013166 0
0.0455192 -0.00109825 0
-0.0931794 0.00352963 0
-0.0652828 -0.00205273 0
0.104691 0.000865741 0
-0.04515 -0.00492027 0
0.0984429 -0.000290884 0
-0.0900308 0.00361475 0
-0.0612293 -0.00355618 0
-0.108658 0.00226654 0
-0.107204 0.00270362 0
0.108511 0.000632617 0
-0.109864 0.000270727 0
-0.0122976 0.00626685 0
-0.0842792 0.00380475 0
-0.109828 0.00161176 0
-0.101571 -0.00105746 0
0.113204 -8.60541e-05 0
0.0400142 0.00724745 0
-0.104528 0.0014533 0
0.1136 0.0010024 0
0.109312 0.000485827 0
-0.0924917 0.0032764 0
-0.1097 0.000456802 0
-0.107987 -0.000422298 0
0.10649 0.00186836 0
0.0551478 0.00697547 0
-0.0159934 0.00467135 0
-0.111564 0.00182464 0
-0.0957635 0.00223487 0
0.0831817 -0.00400542 0
-0.0840314 -0.000552926 0
-0.106473 0.00153792 0
0.0662645 -0.000100468 0
0.111562 0.00068724 0
-0.0980357 -0.00122737 0
-0.107864 0.0015376 0
-0.0615671 -0.00308834 0
0.0546635 0.0025125 0
0.0973124 0.00180896 0
-0.101452 0.00254082 0
0.109374 0.000484648 0
0.112241 0.00140882 0
0.0643977 0.00404027 0
0.0672858 0.00185441 0
-0.101175 0.00200741 0
0.105449 -9.7632e-05 0
-0.047284 -0.00184984 0
-0.0977489 0.00283731 0
0.105745 0.00062339 0
-0.0947334 0.00278397 0
0.0931945 0.00309255 0
0.0405383 0.00691885 0
0.0588034 0.000783031 0
0.112295 0.000948597 0
-0.10114 0.00196094 0
0.0209217 -0.00152676 0
0.0107849 -0.00304979 0
-0.0718789 0.00157347 0
-0.106576 0.000908034 0
-0.104744 0.00142462 0
-0.10428 0.000237217 0
0.108413 0.000430911 0
0.107395 0.000480034 0
0.110677 0.000443226 0
-0.107615 -0.000164162 0
0.0710449 0.00150797 0
0.00613717 0.00384436 0
-0.112153 0.00198466 0
-0.108965 0.00125166 0
0.105267 0.000596798 0
-0.104156 0.00144831 0
0.104119 0.0024369 0
-0.105867 0.000228952 0
-0.102291 0.000598889 0
-0.0466236 -0.00544738 0
-0.107464 0.0012919 0
0.102661 0.000103506 0
-0.0908843 0.00353108 0
-0.102472 -0.000218023 0
-0.0401312 0.00597622 0
-0.107255 0.00150119 0
-0.108758 0.00165506 0
0.0926599 -0.000142054 0
-0.0376765 0.00247981 0
0.108232 0.000450512 0
0.110574 -7.70748e-05 0
0.0703001 0.00440119 0
0.112043 0.00158759 0
0.106838 0.00239008 0
0.111562 0.00182923 0
-0.072834 0.00688385 0
-0.10064 0.00118065 0
-0.111657 0.000890966 0
0.114535 0.000943986 0
-0.0144767 0.00264396 0
0.107807 0.000228365 0
0.105405 0.00160002 0
0.110944 0.000498731 0
0.0194034 0.00392889 0
-0.0556317 0.00733046 0
0.0932629 0.00212708 0
-0.012267 0.000770138 0
-0.0520267 0.00316186 0
-0.0875305 0.00374842 0
0.108403 0.00252085 0
-0.0773371 0.00454872 0
0.0999307 -0.000752272 0
0.0824719 -0.000586337 0
-0.111525 0.00231651 0
0.0876439 -0.00325101 0
0.113509 -0.000690417 0
0.101448 -0.000119278 0
0.108721 0.00271414 0
-0.108787 0.00207417 0
-0.0232037 0.00468459 0
0.110474 0.00125047 0
0.110137 0.000448218 0
0.0507024 0.00728074 0
-0.103961 0.000500276 0
-0.101644 0.00199827 0
0.113291 0.000833957 0
-0.103718 -0.000161997 0
0.109612 0.00138625 0
0.110226 4.98407e-05 0
0.0526564 -0.00555848 0
0.105309 0.00163398 0
-0.106778 0.00152595 0
-0.0909754 0.000490602 0
-0.0608779 -1.90041e-05 0
0.00924112 -0.00137703 0
0.0135113 -0.00704889 0
-0.0978906 0.00154957 0
0.0489902 -0.0062424 0
-0.010627 0.0113355 0
-0.110407 0.00226372 0
-0.0783204 0.00430721 0
-0.107664 0.00183098 0
-0.0438883 -0.00295515 0
0.11035 0.00257081 0
-0.0759652 0.00475487 0
-0.109193 0.000608189 0
-14.0505 58.1199 0
0.109993 -0.000694483 0
0.109538 0.000407502 0
-0.088294 0.00444566 0
0.106757 0.00151411 0
0.101108 0.0004265 0
-132.026 -236.108 0
0.0337864 0.00458074 0
-0.108002 0.00162988 0
-0.0892449 -2.04532e-06 0
0.108593 0.00164971 0
0.976683 -2.00976 0
0.102696 0.00202871 0
-0.105807 -0.00100426 0
-0.0669236 0.000732487 0
-0.107457 -0.000263719 0
-0.109412 0.00244207 0
0.107874 0.000428118 0
-0.110734 0.000266086 0
-0.0958904 0.00311373 0
0.0844138 0.00404836 0
-0.104416 0.000663089 0
-0.0866676 0.00445054 0
-0.0964177 0.00285757 0
0.108844 0.00182849 0
0.09821 -0.00117622 0
-0.0637246 0.00575012 0
0.112152 0.000152069 0
-0.108133 -0.000894714 0
-0.0999458 -0.000310895 0
-0.109233 0.000974181 0
0.0100001 -0.00750673 0
-0.105243 -0.000814265 0
0.107814 0.00186542 0
-0.106891 0.00163974 0
-0.106597 0.00117004 0
-0.0255663 0.00470566 0
0.0702809 0.0043478 0
-0.0339571 0.0103494 0
0.0234588 0.00617672 0
-0.108078 0.00169102 0
-0.0188669 0.00164655 0
-0.108383 0.000372571 0
-0.108829 0.00211539 0
0.105193 -0.000844972 0
0.0922861 0.0032128 0
-0.10149 0.00237934 0
0.0980471 0.00203956 0
0.0969535 0.00106316 0
-0.103723 0.00147382 0
-0.0567012 -0.00122078 0
0.0765609 -0.00390979 0
-0.104089 0.000857855 0
0.0928411 -0.00168732 0
0.0429237 -0.000593268 0
-0.106531 0.000387415 0
0.10091 0.00053906 0
0.106131 8.17389e-05 0
0.108096 -0.000542464 0
0.110017 0.000298839 0
0.111742 0.000724952 0
0.106295 0.00259038 0
-0.107521 0.00139157 0
0.0779958 0.00328018 0
-0.0883335 -0.000689321 0
0.0511326 0.00779451 0
-0.101171 0.00138471 0
[...]
      <PointData Scalars="T">
        <DataArray type="Float32" Name="T" format="ascii" NumberOfComponents="1">
310.567
331.849
312.565
302.558
347.695
341.482
312.565
348.205
312.565
347.695
312.565
310.567
347.695
347.079
341.839
310.567
363.481
300.596
300.524
331.52
347.695
310.567
335.824
300.598
312.565
310.567
347.079
312.565
347.695
347.695
347.695
347.079
300.444
300.684
310.567
301.195
300.593
337.62
347.079
347.079
310.567
310.567
347.079
300.453
300.44
347.695
310.567
312.565
300.539
300.599
310.567
352.417
347.695
300.811
337.62
335.389
300.779
310.567
310.567
312.565
310.567
300.723
312.565
301.257
347.695
348.286
300.582
300.548
302.176
300.439
328.202
301.942
300.593
310.567
310.567
347.079
310.567
338.87
310.567
344.501
347.079
339.468
310.567
342.265
312.565
328.483
312.565
347.079
347.695
347.079
310.567
349.284
301.257
347.695
347.079
347.695
310.567
328.126
347.695
352.496
347.079
347.079
300.543
347.079
300.545
310.567
310.567
310.567
302.123
347.079
347.695
328.376
347.695
310.567
310.567
331.044
339.468
310.567
344.598
347.079
300.779
347.079
312.565
347.695
300.545
300.563
310.567
302.12
347.079
300.563
312.565
300.552
344.63
335.689
301.117
300.571
312.565
328.376
312.565
312.565
312.565
310.567
312.565
347.079
347.695
312.565
347.695
341.569
347.079
331.898
310.567
300.641
347.079
312.565
310.567
302.19
312.565
331.849
347.079
300.562
301.026
347.079
335.585
335.389
347.695
312.565
312.565
301.823
310.567
342.265
312.565
328.984
347.079
302.116
347.079
347.695
335.824
347.079
347.079
347.079
300.615
347.695
347.695
310.567
300.557
312.565
312.565
300.466
312.565
310.567
312.565
312.565
347.079
310.567
347.695
300.564
347.695
347.695
333.558
310.567
347.695
300.754
312.565
347.079
312.565
347.079
310.567
312.565
347.695
347.079
300.453
347.079
312.565
347.695
347.079
347.695
347.695
300.576
353.32
347.695
347.695
330.661
347.079
312.565
310.567
329.412
300.434
300.548
347.695
350.5
347.079
302.125
310.567
347.695
338.285
347.695
312.565
347.079
328.202
312.565
300.615
347.079
328.202
347.079
310.567
302.195
347.695
300.548
300.723
310.567
302.132
347.695
312.565
347.079
347.695
300.57
347.695
310.567
310.567
300.493
300.44
347.695
312.565
312.565
328.725
345.579
330.337
354.425
300.571
300.548
300.563
347.079
300.88
310.567
347.695
341.293
300.552
329.626
310.567
354.808
347.701
347.079
337.62
302.196
347.695
347.079
347.695
328.55
332.316
312.565
347.695
300.557
312.565
310.567
301.179
310.567
302.163
347.695
341.735
348.182
300.44
347.695
301.155
301.34
300.548
310.567
347.695
310.567
341.732
347.695
347.695
310.567
347.695
312.565
312.565
347.695
312.565
312.565
312.565
310.567
347.695
347.695
300.59
300.563
310.567
347.853
347.695
300.463
347.079
300.701
303.048
312.565
301.566
328.256
347.874
347.079
312.565
312.565
328.126
312.565
347.695
347.695
347.695
338.87
347.079
310.567
347.695
348.205
347.695
312.565
300.613
347.695
300.9
300.582
347.079
310.567
331.044
347.079
301.612
312.565
310.567
347.079
343.417
347.079
347.695
300.582
353.476
347.695
310.567
347.049
347.695
347.695
302.163
312.565
347.695
301.488
347.079
347.079
349.009
312.565
347.079
302.125
331.52
342.319
347.695
310.567
347.695
310.567
333.72
331.898
353.487
347.695
312.565
310.567
347.695
310.567
300.624
329.118
347.079
312.565
345.405
312.565
312.565
353.114
300.542
302.558
312.565
300.868
300.586
310.567
331.849
310.567
347.079
310.567
332.785
347.079
347.695
312.565
333.72
300.582
347.695
310.567
328.249
300.582
300.542
310.567
312.565
328.256
335.585
300.779
347.695
310.567
335.275
302.195
349.009
347.079
340.4
347.695
301.065
300.589
347.695
312.565
341.186
350.865
347.079
347.695
347.079
310.567
312.565
357.071
300.68
347.079
354.052
312.565
312.565
358.742
335.959
341.443
347.079
300.441
347.079
300.482
347.695
347.079
300.542
310.567
347.079
347.079
347.695
347.695
310.567
341.128
312.565
300.571
302.155
347.695
347.695
333.558
300.586
310.567
344.789
358.742
347.079
335.389
300.602
310.567
300.547
300.435
347.695
310.567
310.567
300.449
330.337
310.567
312.565
348.534
301.072
329.626
335.959
347.695
347.079
350.865
347.079
347.079
347.079
312.565
312.565
312.565
310.567
312.565
310.567
310.567
347.079
310.567
333.89
302.815
310.567
347.695
302.123
347.695
344.598
347.695
345.607
310.567
312.565
310.567
300.63
300.986
312.565
347.695
310.567
302.161
343.417
302.122
341.732
328.249
347.079
312.565
300.839
347.695
347.695
347.079
352.55
347.079
310.567
310.567
300.59
310.567
347.079
336.37
310.567
337.643
300.448
310.567
347.079
328.126
312.565
347.695
301.027
310.567
347.079
310.567
347.079
300.706
351.383
347.695
300.615
312.565
347.079
360.568
344.63
331.344
347.695
310.567
312.565
300.666
300.44
310.567
347.079
344.568
347.829
347.079
328.725
301.516
312.565
347.695
310.567
353.917
300.44
310.567
300.493
335.824
310.567
347.079
348.65
310.567
312.565
347.079
310.567
328.725
312.565
303.158
310.567
300.547
347.079
347.079
347.695
345.579
310.567
347.079
312.565
352.417
347.079
310.567
300.552
347.079
358.742
347.695
347.695
300.868
312.565
347.695
347.701
347.079
310.567
312.565
328.984
347.695
301.729
312.565
310.567
310.567
335.824
347.079
347.079
347.079
347.079
302.161
347.695
310.567
300.754
347.079
347.695
300.552
312.565
347.079
333.72
312.565
347.079
347.079
330.337
301.117
347.079
339.414
310.567
347.695
334.717
312.565
310.567
329.118
310.567
312.565
341.285
310.567
300.548
332.727
347.695
312.565
300.542
300.555
310.567
301.985
348.018
347.874
347.695
347.695
310.567
329.201
347.079
300.442
301.414
338.87
339.414
347.695
300.582
310.567
310.567
310.567
347.695
300.543
312.565
343.879
334.627
300.754
300.595
310.567
310.567
300.68
347.695
310.567
300.86
312.565
328.256
310.567
347.695
312.565
301.027
312.565
310.567
312.565
347.695
300.585
345
302.076
329.412
347.695
347.695
312.565
347.079
310.567
328.256
300.552
310.567
347.079
312.565
342.865
353.32
348.5
339.414
347.695
347.695
300.553
312.565
312.565
300.551
312.565
344.789
310.567
328.739
347.932
301.729
312.565
330.868
300.441
335.689
310.567
347.695
347.695
347.695
347.079
354.425
300.444
347.695
310.567
347.695
347.079
347.695
354.808
347.079
300.57
310.567
302.957
347.695
347.079
347.695
341.285
347.079
347.695
347.079
310.567
329.118
347.079
312.565
302.406
300.548
340.387
341.897
347.079
302.195
353.945
300.596
333.558
347.079
353.917
310.567
300.551
310.567
300.562
300.868
347.695
347.695
301.488
347.695
310.567
341.896
302.195
335.585
347.079
300.86
328.483
300.57
347.695
336.876
312.565
300.615
354.052
310.567
312.565
300.583
310.567
347.695
347.079
348.018
310.567
341.897
300.583
310.567
301.611
312.565
348.907
335.041
300.562
347.695
347.695
312.565
300.551
301.179
300.63
347.695
347.079
310.567
340.4
300.628
301.76
328.739
347.695
300.783
344.63
312.565
300.548
328.725
328.126
302.957
300.444
347.695
347.079
347.079
310.567
300.566
343.417
347.695
335.275
343.417
347.079
301.117
347.695
300.751
341.482
300.957
300.549
341.443
300.684
339.414
302.182
300.595
347.695
347.079
300.783
312.565
310.567
310.567
310.567
310.567
328.249
310.567
312.565
347.829
312.565
310.567
337.174
300.586
312.565
310.567
347.695
339.468
347.079
312.565
347.079
300.613
347.079
336.388
347.695
310.567
347.079
347.737
347.079
312.565
349.009
335.959
312.565
300.69
347.079
347.079
312.565
347.695
303.28
312.565
352.55
310.567
347.079
300.594
312.565
310.567
312.565
310.567
310.567
347.695
300.628
312.565
300.666
347.695
300.571
347.079
347.695
347.079
312.565
310.567
331.849
347.079
347.695
312.565
336.37
347.695
300.614
300.548
310.567
301.516
329.201
339.414
312.565
347.695
310.567
347.695
347.079
300.561
347.079
312.565
347.695
362.29
347.695
339.468
347.695
342.419
347.079
347.695
347.695
310.567
345
312.565
312.565
312.565
303.28
310.567
347.695
300.562
329.201
310.567
328.256
301.76
300.6
362.812
310.567
347.695
301.404
310.567
312.565
352.798
300.648
347.695
300.44
347.079
347.079
310.567
347.079
331.898
347.695
347.079
312.565
310.567
310.567
310.567
347.079
312.565
351.826
312.565
300.493
310.567
310.567
300.811
312.565
300.595
347.079
310.567
300.88
354.808
347.695
312.565
335.041
300.434
347.695
347.079
330.298
341.128
347.079
329.118
300.701
347.079
310.567
340.387
312.565
347.695
310.567
347.695
347.695
301.76
310.567
347.695
312.565
310.567
300.599
300.453
347.079
347.695
347.701
348.362
312.565
347.695
300.521
347.695
347.695
301.292
301.341
337.643
310.567
312.565
300.599
312.565
331.52
300.613
310.567
347.695
347.695
347.695
363.187
347.695
312.565
328.55
312.565
347.079
300.577
312.565
310.567
328.739
347.079
347.079
347.695
312.565
310.567
347.079
301.228
300.624
347.079
347.079
301.072
331.044
300.583
312.565
310.567
347.079
347.695
347.695
337.174
310.567
348.65
301.065
341.285
347.695
300.548
310.567
310.567
312.565
301.414
347.701
345.195
347.079
329.626
300.548
300.723
310.567
310.567
310.567
310.567
347.079
334.627
347.695
347.695
348.534
329.118
330.337
300.505
312.565
312.565
300.545
300.839
329.412
312.565
333.72
300.448
356.853
347.695
310.567
337.62
343.879
300.571
349.009
312.565
312.565
312.565
301.072
310.567
301.905
312.565
310.567
356.798
300.524
341.569
310.567
310.567
300.608
352.798
312.565
354.052
310.567
310.567
310.567
310.567
347.695
312.565
347.695
310.567
300.614
312.565
347.851
346.475
344.63
312.565
312.565
347.079
310.567
335.275
300.754
300.595
347.079
347.695
348.799
312.565
310.567
333.72
300.563
347.695
300.754
335.959
328.376
347.014
347.695
312.565
312.565
355.772
347.695
347.695
347.695
312.565
347.079
310.567
347.695
310.567
300.796
347.695
332.785
310.567
347.695
300.551
312.565
312.565
347.695
300.453
312.565
347.079
347.695
312.565
336.614
300.548
347.695
328.126
300.553
347.079
347.079
300.586
300.607
301.679
302.03
310.567
353.617
300.641
310.567
347.695
347.695
312.565
329.907
310.567
300.449
342.173
331.849
310.567
348.538
343.118
300.613
312.565
347.737
341.839
300.731
333.95
345
356.59
352.496
347.695
312.565
312.565
347.695
332.316
312.565
347.079
303.048
310.567
310.567
347.695
339.468
312.565
342.265
310.567
335.402
310.567
312.565
341.285
300.839
301.072
347.079
329.412
347.079
347.079
328.55
347.695
332.316
336.876
310.567
300.57
312.565
335.402
312.565
347.695
330.868
300.555
328.984
328.126
301.612
330.868
354.052
312.565
347.079
356.853
310.567
333.72
310.567
300.619
300.868
312.565
347.695
300.796
300.589
329.855
328.249
310.567
347.695
347.695
300.482
300.684
300.542
347.079
300.563
347.695
300.562
312.565
345.247
329.118
329.626
301.863
300.576
347.695
347.695
335.959
347.079
300.609
347.079
312.565
347.079
347.079
300.614
310.567
312.565
347.079
310.567
312.565
310.567
342.173
300.684
347.014
347.701
347.695
331.849
344.789
357.866
347.079
310.567
300.962
347.079
336.614
347.695
312.565
347.695
347.695
328.202
347.079
347.079
312.565
312.565
301.874
328.376
310.567
310.567
300.553
347.079
312.565
300.567
310.567
300.444
310.567
347.695
342.865
348.799
347.695
341.293
300.595
347.079
347.079
310.567
336.614
347.079
347.695
341.473
336.388
328.126
348.162
312.565
347.079
357.375
347.695
347.079
331.52
312.565
347.079
347.695
312.565
301.341
312.565
347.079
347.079
347.695
310.567
329.118
352.798
300.567
347.695
328.249
347.695
310.567
347.695
310.567
310.567
312.565
356.635
312.565
300.57
347.079
348.362
312.565
310.567
347.079
347.695
347.695
301.195
342.51
352.496
347.695
310.567
310.567
312.565
310.567
347.079
347.695
329.118
312.565
310.567
347.695
310.567
310.567
347.701
347.079
356.853
310.567
310.567
310.567
335.585
310.567
348.799
310.567
347.695
331.898
342.319
300.843
300.552
312.565
302.558
354.052
312.565
312.565
341.732
330.868
310.567
302.195
300.586
347.695
312.565
328.984
300.957
301.874
312.565
300.593
348.485
329.855
348.205
310.567
312.565
312.565
300.542
347.695
310.567
328.249
300.628
300.607
310.567
347.079
300.521
331.344
310.567
310.567
312.565
348.412
312.565
312.565
312.565
301.072
302.027
344.758
310.567
303.158
347.695
347.079
348.5
341.732
347.695
347.695
341.128
347.695
301.488
300.553
347.079
310.567
347.695
341.839
335.824
312.565
347.079
347.079
300.768
302.815
310.567
310.567
310.567
342.319
300.74
302.122
312.565
310.567
330.298
300.46
344.598
347.079
347.079
312.565
347.079
347.695
347.695
347.695
347.695
347.695
345.405
347.695
300.711
301.179
301.072
332.785
312.565
335.275
301.026
310.567
337.174
300.613
300.608
310.567
302.176
312.565
342.113
312.565
300.44
347.695
310.567
341.212
310.567
347.695
312.565
300.57
347.695
347.695
347.079
347.695
347.079
347.695
312.565
312.565
312.565
347.079
310.567
347.695
300.548
353.8
310.567
329.626
347.695
347.079
329.855
300.607
312.565
356.635
312.565
301.942
347.079
347.695
300.614
302.125
334.627
302.076
302.161
312.565
300.552
312.565
347.079
347.695
347.079
347.079
310.567
312.565
310.567
300.596
301.404
347.695
347.694
347.701
300.907
300.439
300.545
312.565
337.174
312.565
310.567
301.179
310.567
300.586
310.567
347.695
334.627
347.695
310.567
332.785
347.695
300.547
300.44
300.607
300.432
347.695
310.567
334.627
302.125
310.567
347.695
312.565
347.079
347.079
347.079
300.548
347.079
347.079
341.482
347.079
349.284
328.126
347.079
355.182
342.173
312.565
347.695
347.695
310.567
310.567
312.565
300.557
310.567
331.849
347.695
310.567
347.079
347.079
310.567
335.824
363.307
300.59
310.567
300.648
347.695
332.316
312.565
347.695
347.695
302.196
350.936
300.524
300.572
312.565
300.553
347.695
334.295
347.695
302.558
332.785
347.695
347.695
347.695
347.079
347.695
310.567
347.079
347.695
330.868
310.567
347.695
300.751
347.695
342.265
310.567
329.241
347.079
300.666
300.548
351.826
347.829
346.68
300.586
341.443
329.626
344.792
347.079
347.695
347.079
347.079
302.196
302.406
347.079
347.695
312.565
300.99
312.565
347.079
302.685
312.565
301.612
301.823
347.695
347.079
347.695
332.785
300.592
339.414
310.567
335.824
347.079
347.079
312.565
300.432
362.738
347.695
300.582
342.173
302.196
312.565
310.567
312.565
312.565
310.567
337.62
347.079
353.745
347.695
312.565
300.555
357.071
300.614
344.789
329.201
347.695
347.079
341.434
300.768
300.839
331.344
347.079
300.641
310.567
330.298
312.565
331.898
300.545
312.565
300.548
347.695
310.567
312.565
300.868
302.116
353.487
300.432
347.079
347.079
300.986
300.542
353.745
341.293
310.567
301.488
312.565
347.079
347.079
329.241
300.723
300.843
347.079
310.567
302.406
347.851
312.565
310.567
347.695
363.187
348.5
336.876
347.695
344.615
347.695
347.695
300.711
347.079
300.438
362.738
355.772
310.567
342.319
347.695
336.37
347.079
312.565
347.695
347.079
300.653
347.695
345.621
328.376
310.567
300.548
300.99
300.779
347.079
347.079
329.412
348.534
337.62
347.695
347.079
329.412
335.824
312.565
310.567
310.567
300.567
300.444
347.079
347.932
310.567
310.567
357.09
347.079
330.868
312.565
342.319
347.695
347.695
301.863
336.37
312.565
310.567
300.444
312.565
328.256
310.567
347.695
347.695
347.079
310.567
347.695
310.567
300.589
300.592
300.576
347.695
347.079
300.505
300.586
300.589
310.567
310.567
300.595
347.079
300.684
312.565
335.402
347.851
328.55
312.565
300.542
312.565
336.388
342.319
347.695
310.567
333.231
310.567
342.419
300.57
312.565
312.565
300.545
347.695
302.19
347.079
300.564
300.57
310.567
347.695
347.079
347.079
333.558
357.09
347.079
300.59
335.689
347.676
312.565
312.565
300.641
328.126
347.695
347.079
347.079
310.567
347.695
347.874
347.079
300.962
347.695
348.496
300.563
329.118
310.567
347.079
301.026
335.585
347.079
310.567
347.695
312.565
352.496
334.627
312.565
310.567
347.079
329.626
347.695
300.571
347.695
347.079
300.557
348.205
301.942
310.567
348.799
310.567
301.341
312.565
312.565
300.566
353.223
312.565
310.567
344.63
310.567
347.695
347.079
347.079
347.695
347.079
300.839
353.223
310.567
310.567
310.567
312.565
310.567
301.611
312.565
310.567
347.079
300.701
310.567
347.079
312.565
312.565
300.796
300.439
347.079
300.957
300.613
347.079
310.567
347.079
347.079
312.565
328.202
347.695
300.812
347.695
300.663
300.564
310.567
300.548
301.117
312.565
312.565
300.555
300.441
329.201
347.079
347.694
300.86
300.521
347.695
312.565
300.706
347.932
312.565
310.567
312.565
300.684
312.565
329.907
302.161
300.595
342.51
312.565
347.079
310.567
300.548
301.823
347.695
347.079
310.567
330.661
347.695
312.565
300.957
312.565
347.695
310.567
300.593
345.247
331.344
312.565
312.565
310.567
347.079
347.079
347.079
300.557
310.567
312.565
347.853
338.87
312.565
300.505
310.567
310.567
312.565
347.695
310.567
347.079
310.567
341.897
339.468
300.663
310.567
347.695
341.128
310.567
347.079
344.875
344.758
343.879
347.695
330.337
347.079
302.815
312.565
348.907
300.74
348.018
310.567
303.28
347.079
300.55
312.565
347.695
312.565
345.579
342.419
347.695
328.725
310.567
310.567
312.565
347.079
312.565
347.079
302.196
302.815
335.585
356.853
328.376
300.482
300.566
310.567
300.599
347.079
303.048
340.4
300.595
347.695
300.547
328.256
347.695
310.567
312.565
347.079
300.576
347.695
300.843
347.695
347.079
347.079
347.079
312.565
347.695
347.079
345.579
347.079
347.079
302.815
347.695
312.565
312.565
310.567
312.565
310.567
312.565
334.295
347.079
341.443
310.567
310.567
330.337
302.03
300.586
300.55
302.685
347.695
347.695
310.567
310.567
312.565
300.552
344.63
300.449
347.079
335.824
347.695
303.28
347.695
300.593
358.742
301.341
335.041
347.079
302.123
338.87
310.567
312.565
310.567
348.65
348.018
300.57
312.565
312.565
312.565
310.567
348.412
310.567
300.599
347.695
300.542
310.567
312.565
352.417
310.567
310.567
353.917
342.319
347.014
300.539
312.565
337.62
347.695
346.68
357.071
300.582
312.565
347.695
347.079
300.548
347.079
347.695
347.695
302.685
310.567
347.079
345.405
347.079
312.565
347.079
347.079
300.74
310.567
310.567
302.161
347.695
347.079
347.079
347.079
310.567
312.565
302.161
300.545
336.876
328.249
347.695
328.725
347.079
329.241
339.414
300.474
300.653
301.404
312.565
347.079
347.079
335.159
347.695
347.695
312.565
344.63
310.567
310.567
301.228
347.079
347.079
300.648
310.567
300.839
352.417
310.567
329.412
333.72
300.551
300.543
301.729
312.565
310.567
310.567
310.567
301.823
312.565
312.565
341.293
301.341
341.897
310.567
347.695
342.51
342.319
300.957
300.557
349.009
310.567
337.643
356.411
329.626
347.079
312.565
347.695
342.113
300.706
300.439
353.617
347.695
347.695
344.875
312.565
312.565
301.729
347.874
300.44
300.493
312.565
349.009
347.701
300.543
300.609
310.567
300.711
300.545
310.567
347.079
300.557
300.432
300.723
347.695
347.695
328.984
337.174
347.695
312.565
348.241
346.475
347.695
347.695
347.695
300.594
300.572
312.565
335.402
300.571
312.565
312.565
312.565
302.123
338.285
328.256
347.079
312.565
338.645
302.558
347.079
312.565
343.417
345.579
347.695
310.567
347.079
347.079
310.567
347.079
300.561
347.695
300.572
310.567
310.567
348.538
301.874
329.907
347.079
312.565
347.695
312.565
312.565
310.567
310.567
310.567
347.695
310.567
345.792
347.079
300.444
347.079
356.411
342.865
312.565
347.695
341.482
347.695
300.553
347.079
328.725
310.567
303.048
312.565
347.079
331.344
300.434
331.849
347.695
310.567
347.079
333.558
347.079
347.695
353.945
347.695
329.412
300.566
301.12
328.256
347.079
312.565
301.292
347.079
347.695
310.567
300.539
310.567
335.402
347.695
312.565
347.079
328.725
357.375
300.444
312.565
312.565
300.594
310.567
300.783
310.567
312.565
347.695
347.874
344.758
341.473
347.079
347.695
310.567
340.868
302.122
300.505
335.959
301.155
310.567
347.079
347.079
300.566
347.695
347.695
310.567
328.256
341.839
347.695
347.695
347.079
347.695
347.079
347.695
347.695
310.567
347.079
347.079
347.695
347.079
310.567
300.567
310.567
310.567
347.695
347.079
312.565
347.695
347.695
348.822
300.571
312.565
347.695
353.32
310.567
312.565
347.079
347.695
347.079
347.079
347.695
312.565
347.695
357.866
310.567
300.723
347.695
347.079
301.404
301.488
329.118
347.079
330.337
347.695
348.362
312.565
310.567
310.567
310.567
310.567
347.695
312.565
312.565
300.99
342.51
347.079
328.984
347.079
310.567
312.565
300.545
300.571
347.695
347.695
347.695
301.404
347.695
300.439
356.798
312.565
347.695
301.612
300.555
331.044