<?xml version="1.0"?>
<VTKFile type="ImageData" version="0.1" byte_order="LittleEndian">
  <ImageData Origin="0 0 0" Spacing="1e-05 1e-05 1e-05" WholeExtent="0 191 0 191 0 0">
    <Piece Extent="0 191 0 191 0 0">
      <CellData Scalars="T">
        <DataArray type="Float32" Name="T" format="ascii" NumberOfComponents="1">
380.654
15000
14993.9
14983.4
14966.9
14942.1
14906.1
14856
14788.1
14698.4
14582.9
14437.4
14257.9
14041
13783.6
13483.6
13139.9
12752.6
12323
11853.7
11348.4
10812.2
10250.9
9671.33
9080.6
8486.26
7895.84
7316.62
6755.45
6218.5
5711.14
5237.78
4801.86
4405.76
4050.85
3737.54
3465.36
3233.07
3038.72
2879.89
2753.68
2656.95
2586.37
2538.55
2510.16
2498
2499.07
2510.67
2530.47
2556.46
2587.06
2621.1
2657.77
2696.61
2737.49
2780.51
2825.98
2874.3
2925.93
2981.32
3040.81
3104.6
3172.74
3245.03
3321.09
3400.37
3482.16
3565.74
3650.36
3735.45
3820.6
3905.68
3990.82
4076.39
4162.96
4251.1
4341.31
4433.77
4528.29
4624.18
4720.22
4814.78
4905.92
4991.64
5070.1
5139.87
5200.07
5250.49
5291.58
5324.3
5349.95
5369.91
5385.4
5397.29
5405.95
5411.27
5412.74
5409.63
5401.21
5386.98
5366.9
5341.49
5311.86
5279.62
5246.7
5215.15
5186.86
5163.28
5145.28
5132.98
5125.73
5122.16
5120.29
5117.73
5111.88
5100.16
5080.24
5050.23
5008.79
4955.27
4889.71
4812.87
4726.13
4631.38
4530.94
4427.35
4323.26
4221.23
4123.63
4032.52
3949.56
3875.93
3812.37
3759.16
3716.13
3682.81
3658.41
3642
3632.52
3628.96
3630.35
3635.89
3644.97
3657.18
3672.37
3690.57
3711.99
3736.93
3765.76
3798.79
3836.2
3878.01
3923.93
3973.4
4025.5
4079.03
4132.47
4184.12
4232.15
4274.74
4310.19
4337.03
4354.17
4360.97
4357.29
4343.52
4320.56
4289.77
4252.86
4211.78
4168.57
4125.25
4083.62
4045.23
4011.22
3982.29
3958.69
3940.2
3926.21
3915.72
3907.32
3899.22
3888.96
3872.93
3845.36
3796.17
3706.89
3542.81
3237.6
2662.97
1565.5
310.657
465.729
15000
14993.9
14983.5
14967
14942.2
14906.3
14856.3
14788.4
14698.9
14583.5
14438.2
14258.9
14042.2
13784.9
13485.1
13141.5
12754.2
12324.6
11855.1
11349.6
10813.1
10251.5
9671.46
9080.22
8485.33
7894.32
7314.51
6752.74
6215.21
5707.3
5233.43
4797.03
4400.48
4045.17
3731.5
3458.99
3226.38
3031.76
2872.66
2746.22
2649.28
2578.54
2530.6
2502.13
2489.94
2491.05
2502.76
2522.71
2548.91
2579.76
2614.07
2651.02
2690.13
2731.24
2774.45
2820.04
2868.41
2920.02
2975.3
3034.61
3098.17
3166.01
3237.98
3313.7
3392.65
3474.14
3557.45
3641.87
3726.81
3811.88
3896.93
3982.1
4067.74
4154.41
4242.68
4333.02
4425.65
4520.36
4616.48
4712.8
4807.71
4899.28
4985.51
5064.57
5134.99
5195.88
5247.01
5288.78
5322.13
5348.33
5368.74
5384.58
5396.72
5405.54
5410.96
5412.48
5409.39
5400.97
5386.74
5366.66
5341.25
5311.6
5279.31
5246.31
5214.63
5186.16
5162.35
5144.07
5131.46
5123.87
5119.94
5117.73
5114.85
5108.7
5096.74
5076.64
5046.5
5005
4951.47
4885.97
4809.23
4722.62
4628.04
4527.79
4424.4
4320.49
4218.64
4121.19
4030.21
3947.33
3873.76
3810.23
3757
3713.94
3680.56
3656.1
3639.62
3630.09
3626.49
3627.87
3633.43
3642.57
3654.89
3670.22
3688.6
3710.23
3735.41
3764.47
3797.73
3835.35
3877.32
3923.36
3972.86
4024.93
4078.32
4131.55
4182.9
4230.57
4272.73
4307.71
4334.08
4350.76
4357.13
4353.07
4339
4315.82
4284.91
4247.96
4206.92
4163.84
4120.69
4079.28
4041.12
4007.34
3978.61
3955.18
3936.83
3922.94
3912.49
3904.11
3896
3885.71
3869.67
3842.1
3792.98
3704
3540.93
3239.12
2676.91
1629.78
303.345
464.295
15000
14993.9
14983.5
14967.1
14942.4
14906.7
14856.8
14789.2
14699.9
14584.9
14439.9
14261.1
14044.7
13787.8
13488.2
13144.9
12757.7
12328
11858.4
11352.6
10815.6
10253.2
9672.34
9080.13
8484.15
7892
7311
6748.04
6209.35
5700.31
5225.38
4787.99
4390.53
4034.38
3719.93
3446.71
3213.45
3018.22
2858.57
2731.63
2634.26
2563.15
2514.93
2486.28
2474.03
2475.19
2487.07
2507.31
2533.9
2565.22
2600.05
2637.53
2677.15
2718.72
2762.3
2808.14
2856.61
2908.18
2963.26
3022.23
3085.31
3152.59
3223.92
3298.98
3377.28
3458.17
3540.96
3624.96
3709.6
3794.5
3879.49
3964.7
4050.48
4137.33
4225.84
4316.46
4409.4
4504.48
4601.05
4697.93
4793.52
4885.94
4973.18
5053.39
5125.09
5187.34
5239.85
5282.96
5317.54
5344.82
5366.13
5382.67
5395.31
5404.47
5410.09
5411.72
5408.68
5400.28
5386.06
5365.99
5340.57
5310.88
5278.51
5245.35
5213.43
5184.6
5160.33
5141.5
5128.25
5119.98
5115.35
5112.45
5108.91
5102.19
5089.75
5069.27
5038.88
4997.24
4943.7
4878.3
4801.76
4715.43
4621.19
4521.31
4418.31
4314.78
4213.28
4116.15
4025.42
3942.73
3869.28
3805.79
3752.55
3709.43
3675.95
3651.37
3634.76
3625.12
3621.45
3622.81
3628.42
3637.68
3650.2
3665.82
3684.55
3706.59
3732.22
3761.75
3795.45
3833.47
3875.76
3921.99
3971.56
4023.53
4076.67
4129.46
4180.22
4227.15
4268.47
4302.54
4327.97
4343.74
4349.26
4344.47
4329.8
4306.21
4275.05
4238.04
4197.12
4154.29
4111.5
4070.53
4032.83
3999.5
3971.19
3948.11
3930.03
3916.31
3905.95
3897.59
3889.45
3879.09
3862.97
3835.36
3786.31
3697.68
3535.67
3236.7
2681.27
1645.2
303.357
463.077
15000
14993.9
14983.7
14967.3
14942.8
14907.3
14857.7
14790.4
14701.6
14587.1
14442.7
14264.4
14048.7
13792.4
13493.4
13150.5
12763.6
12334
11864.3
11358.1
10820.4
10257.2
9675.1
9081.52
8484.01
7890.18
7307.42
6742.69
6202.22
5691.46
5214.88
4775.93
4377.01
4019.51
3703.81
3429.43
3195.09
2998.88
2838.32
2710.56
2612.47
2540.74
2492.04
2463.06
2450.64
2451.81
2463.89
2484.48
2511.59
2543.55
2579.09
2617.32
2657.68
2699.9
2744.01
2790.21
2838.86
2890.37
2945.18
3003.66
3066.08
3132.53
3202.95
3277.05
3354.39
3434.4
3516.41
3599.78
3683.97
3768.59
3853.48
3938.73
4024.67
4111.78
4200.62
4291.63
4385.03
4480.64
4577.85
4675.54
4772.13
4865.76
4954.45
5036.34
5109.89
5174.12
5228.64
5273.7
5310.09
5338.96
5361.59
5379.17
5392.58
5402.25
5408.2
5410.01
5407.06
5398.72
5384.55
5364.51
5339.1
5309.38
5276.89
5243.5
5211.21
5181.85
5156.9
5137.24
5123.05
5113.76
5108.08
5104.14
5099.63
5092.04
5078.87
5057.83
5027.05
4985.21
4931.65
4866.4
4790.15
4704.24
4610.5
4511.18
4408.75
4305.8
4204.84
4108.17
4017.83
3935.44
3862.18
3798.79
3745.55
3702.35
3668.74
3643.99
3627.22
3617.43
3613.66
3615
3620.68
3630.11
3642.93
3658.96
3678.2
3700.84
3727.11
3757.3
3791.64
3830.22
3872.94
3919.45
3969.08
4020.89
4073.61
4125.74
4175.61
4221.45
4261.52
4294.25
4318.3
4332.73
4337.02
4331.17
4315.66
4291.47
4259.99
4222.93
4182.2
4139.76
4097.54
4057.23
4020.24
3987.6
3959.92
3937.36
3919.67
3906.2
3895.97
3887.62
3879.38
3868.87
3852.57
3824.8
3775.71
3687.33
3526.18
3229.31
2677.92
1648.01
303.364
461.758
15000
14994
14983.8
14967.6
14943.3
14908.1
14858.9
14792.1
14703.9
14590.1
14446.5
14269.2
14054.4
13799.1
13501
13158.8
12772.5
12343.3
11873.6
11367.1
10828.8
10264.6
9681.18
9085.95
8486.52
7890.56
7305.53
6738.43
6195.58
5682.46
5203.59
4762.45
4361.46
4002
3684.48
3408.4
3172.49
2974.81
2812.91
2683.93
2584.75
2512.09
2462.64
2433.1
2420.34
2421.41
2433.62
2454.58
2482.25
2514.94
2551.34
2590.48
2631.73
2674.77
2719.55
2766.22
2815.09
2866.56
2921.05
2978.94
3040.53
3105.96
3175.21
3248.08
3324.2
3403.05
3484.04
3566.58
3650.14
3734.36
3819.06
3904.33
3990.44
4077.86
4167.09
4258.58
4352.54
4448.83
4546.86
4645.55
4743.4
4838.58
4929.11
5013.12
5089.04
5155.79
5212.87
5260.43
5299.15
5330.07
5354.44
5373.39
5387.82
5398.21
5404.62
5406.73
5403.97
5395.75
5381.68
5361.72
5336.36
5306.62
5273.99
5240.32
5207.54
5177.5
5151.64
5130.89
5115.45
5104.8
5097.72
5092.4
5086.6
5077.85
5063.7
5041.91
5010.61
4968.5
4914.91
4849.85
4773.98
4688.61
4595.54
4496.96
4395.31
4293.13
4192.88
4096.86
4007.06
3925.08
3852.1
3788.87
3735.66
3692.4
3658.65
3633.71
3616.74
3606.78
3602.9
3604.21
3609.99
3619.66
3632.85
3649.39
3669.29
3692.67
3719.75
3750.76
3785.88
3825.14
3868.38
3915.18
3964.85
4016.39
4068.53
4119.77
4168.44
4212.84
4251.28
4282.26
4304.54
4317.26
4319.98
4312.79
4296.23
4271.32
4239.47
4202.39
4161.95
4120.09
4078.63
4039.23
4003.19
3971.49
3944.65
3922.79
3905.62
3892.49
3882.39
3874
3865.58
3854.78
3838.12
3810.01
3760.68
3672.36
3511.9
3217
2670.57
1654.68
303.368
458.175
15000
14994.1
14984
14968
14943.9
14909.1
14860.4
14794.3
14706.9
14594.1
14451.6
14275.5
14062
13808
13511.2
13170.3
12785
12356.5
11887.2
11380.7
10841.9
10276.8
9692.01
9094.99
8493.39
7894.95
7307.2
6737.21
6191.38
5675.25
5193.41
4749.38
4345.62
3983.54
3663.53
3385.12
3147.03
2947.33
2783.56
2652.87
2552.16
2478.18
2427.61
2397.22
2383.87
2384.63
2396.82
2418.06
2446.25
2479.69
2516.99
2557.12
2599.37
2643.35
2688.91
2736.15
2785.31
2836.76
2890.91
2948.14
3008.78
3073.03
3140.92
3212.33
3286.98
3364.43
3444.17
3525.66
3608.42
3692.1
3776.51
3861.72
3947.98
4035.71
4125.37
4217.39
4311.99
4409.05
4508.03
4607.91
4707.23
4804.2
4896.9
4983.41
5062.11
5131.82
5191.95
5242.49
5283.99
5317.4
5343.87
5364.52
5380.24
5391.56
5398.62
5401.16
5398.7
5390.72
5376.84
5357.05
5331.79
5302.06
5269.3
5235.29
5201.93
5171.04
5144.07
5121.96
5104.97
5092.65
5083.83
5076.8
5069.39
5059.2
5043.83
5021.09
4989.14
4946.69
4893.05
4828.21
4752.81
4668.1
4575.85
4478.19
4377.52
4276.29
4176.96
4081.76
3992.66
3911.23
3838.65
3775.65
3722.54
3679.25
3645.37
3620.25
3603.07
3592.93
3588.93
3590.24
3596.14
3606.09
3619.73
3636.88
3657.52
3681.76
3709.77
3741.73
3777.72
3817.73
3861.52
3908.61
3958.24
4009.39
4060.75
4110.84
4158.03
4200.64
4237.09
4265.96
4286.11
4296.79
4297.67
4288.91
4271.15
4245.44
4213.22
4176.19
4136.19
4095.08
4054.63
4016.38
3981.56
3951.04
3925.26
3904.28
3887.76
3875.02
3865.06
3856.57
3847.84
3836.56
3819.32
3790.61
3740.78
3652.28
3492.39
3199.59
2658.17
1648.95
303.32
456.177
15000
14994.2
14984.2
14968.5
14944.7
14910.3
14862.3
14797
14710.5
14598.9
14457.8
14283.3
14071.5
13819.3
13524.3
13185
12801.3
12374
11905.5
11399.4
10860.5
10294.7
9708.76
9109.97
8506.11
7904.96
7314.15
6740.82
6191.46
5671.71
5186.23
4738.6
4331.33
3965.87
3642.65
3361.2
3120.25
2917.87
2751.62
2618.66
2515.91
2440.11
2388
2356.36
2342.07
2342.24
2354.19
2375.5
2404.09
2438.19
2476.36
2517.48
2560.77
2605.74
2652.15
2700.03
2749.55
2801.03
2854.85
2911.4
2971.02
3033.97
3100.35
3170.13
3243.11
3318.95
3397.22
3477.45
3559.22
3642.18
3726.18
3811.24
3897.58
3985.56
4075.65
4168.22
4263.5
4361.39
4461.4
4562.56
4663.5
4762.48
4857.56
4946.85
5028.66
5101.7
5165.25
5219.17
5263.85
5300.13
5329.05
5351.71
5369
5381.5
5389.4
5392.56
5390.57
5382.96
5369.4
5349.88
5324.82
5295.15
5262.27
5227.88
5193.86
5161.98
5133.71
5110
5091.18
5076.86
5065.98
5056.92
5047.59
5035.68
5018.87
4995
4962.27
4919.39
4865.67
4801.09
4726.24
4642.32
4551.04
4454.48
4354.96
4254.9
4156.67
4062.47
3974.23
3893.51
3821.45
3758.79
3705.86
3662.59
3628.63
3603.35
3585.99
3575.68
3571.59
3572.9
3578.96
3589.23
3603.37
3621.19
3642.66
3667.85
3696.87
3729.82
3766.75
3807.52
3851.84
3899.15
3948.63
3999.21
4049.59
4098.28
4143.68
4184.2
4218.33
4244.76
4262.47
4270.83
4269.65
4259.17
4240.1
4213.58
4181.03
4144.16
4104.76
4064.63
4025.43
3988.6
3955.25
3926.16
3901.66
3881.74
3866
3853.72
3843.89
3835.22
3826.02
3814.04
3795.94
3766.3
3715.65
3626.71
3467.22
3176.3
2637.89
1624.1
303.263
455.852
15000
14994.3
14984.5
14969
14945.6
14911.7
14864.4
14800
14714.7
14604.4
14465
14292.3
14082.6
13832.6
13539.9
13202.8
12821.2
12395.7
11928.6
11423.5
10885
10319
9732.07
9131.73
8525.67
7921.76
7327.68
6750.69
6197.37
5673.45
5183.69
4731.77
4320.27
3950.67
3623.48
3338.23
3093.68
2887.92
2718.53
2582.66
2477.26
2399.11
2344.95
2311.59
2295.95
2295.15
2306.51
2327.63
2356.38
2390.96
2429.86
2471.89
2516.18
2562.14
2609.45
2658.01
2707.95
2759.5
2813.03
2868.9
2927.49
2989.08
3053.87
3121.88
3193.03
3267.07
3343.68
3422.45
3503.02
3585.1
3668.51
3753.28
3839.58
3927.75
4018.19
4111.28
4207.23
4305.96
4407.03
4509.55
4612.19
4713.27
4810.9
4903.15
4988.28
5064.92
5132.19
5189.8
5237.99
5277.46
5309.17
5334.14
5353.29
5367.22
5376.22
5380.21
5378.88
5371.83
5358.76
5339.65
5314.89
5285.37
5252.4
5217.63
5182.87
5149.88
5120.12
5094.58
5073.66
5057.06
5043.83
5032.43
5020.9
5007.02
4988.54
4963.36
4929.72
4886.34
4832.53
4768.23
4693.99
4610.98
4520.81
4425.51
4327.33
4228.62
4131.69
4038.69
3951.49
3871.63
3800.24
3738.05
3685.39
3642.24
3608.25
3582.87
3565.36
3554.93
3550.76
3552.12
3558.36
3568.99
3583.67
3602.21
3624.56
3650.73
3680.78
3714.76
3752.6
3794.11
3838.88
3886.3
3935.48
3985.31
4034.47
4081.48
4124.82
4162.94
4194.45
4218.16
4233.18
4239.02
4235.61
4223.31
4202.91
4175.59
4142.81
4106.25
4067.64
4028.71
3991.01
3955.86
3924.26
3896.83
3873.84
3855.15
3840.31
3828.55
3818.84
3809.89
3800.05
3787.12
3767.85
3736.94
3685.13
3595.45
3436.14
3147.03
2613.33
1620.84
303.239
456.172
15000
14994.4
14984.7
14969.5
14946.5
14913.2
14866.6
14803.2
14719.2
14610.4
14472.9
14302.3
14095
13847.5
13557.5
13223.2
12844.1
12421
11956
11452.5
10914.9
10349.2
9761.9
9160.37
8552.38
7945.84
7348.49
6767.68
6210.11
5681.61
5187.06
4730.24
4313.82
3939.38
3607.45
3317.65
3068.76
2858.9
2685.65
2546.22
2437.54
2356.43
2299.65
2264.05
2246.58
2244.35
2254.71
2275.26
2303.85
2338.63
2378.04
2420.82
2466
2512.89
2561.06
2610.33
2660.72
2712.4
2765.69
2820.94
2878.51
2938.75
3001.89
3068.06
3137.26
3209.36
3284.12
3361.24
3440.42
3521.4
3604.04
3688.34
3774.46
3862.68
3953.38
4046.9
4143.45
4242.98
4345.09
4448.95
4553.3
4656.52
4756.75
4852.06
4940.65
5021.05
5092.24
5153.78
5205.75
5248.7
5283.48
5311.08
5332.38
5348.04
5358.41
5363.49
5363.06
5356.79
5344.39
5325.86
5301.55
5272.27
5239.26
5204.11
5168.56
5134.36
5102.96
5075.41
5052.16
5033.02
5017.16
5003.15
4989.16
4973.08
4952.73
4926.08
4891.41
4847.46
4793.54
4729.54
4655.99
4573.97
4485.05
4391.17
4294.5
4197.33
4101.89
4010.26
3924.29
3845.46
3774.89
3713.3
3661.05
3618.11
3584.19
3558.78
3541.19
3530.67
3526.48
3527.92
3534.38
3545.4
3560.65
3579.94
3603.17
3630.33
3661.41
3696.37
3735.07
3777.23
3822.34
3869.71
3918.4
3967.25
4014.94
4060.03
4101.02
4136.47
4165.11
4185.86
4198
4201.17
4195.42
4181.25
4159.54
4131.5
4098.61
4062.52
4024.92
3987.42
3951.47
3918.26
3888.65
3863.14
3841.85
3824.56
3810.73
3799.54
3789.93
3780.61
3769.95
3755.82
3735.06
3702.54
3649.21
3558.5
3399.24
3112.26
2584.28
1593.99
303.194
453.097
15000
14994.5
14985
14970
14947.4
14914.7
14868.8
14806.4
14723.7
14616.5
14480.9
14312.6
14107.8
13863.2
13576.1
13244.9
12869
12448.9
11986.5
11485.2
10949.3
10384.5
9797.4
9195.24
8585.77
7976.92
7376.5
6791.94
6230.02
5696.73
5197.03
4734.85
4312.96
3933.04
3595.72
3300.67
3046.73
2832.06
2654.27
2510.59
2397.99
2313.3
2253.33
2214.92
2195.06
2190.9
2199.79
2219.32
2247.34
2281.97
2321.59
2364.87
2410.75
2458.43
2507.39
2557.34
2608.2
2660.07
2713.18
2767.86
2824.48
2883.4
2944.9
3009.2
3076.38
3146.42
3219.19
3294.48
3372.07
3451.75
3533.4
3617.02
3702.76
3790.86
3881.66
3975.48
4072.52
4172.75
4275.81
4380.94
4486.94
4592.26
4695.08
4793.45
4885.53
4969.77
5045
5110.64
5166.59
5213.27
5251.41
5281.92
5305.68
5323.38
5335.41
5341.89
5342.64
5337.39
5325.9
5308.14
5284.43
5255.5
5222.53
5187.03
5150.68
5115.19
5082.03
5052.3
5026.53
5004.64
4985.91
4969.08
4952.4
4933.9
4911.51
4883.25
4847.45
4802.88
4748.81
4685.14
4612.33
4531.4
4443.85
4351.53
4256.54
4161.07
4067.29
3977.23
3892.65
3815.02
3745.43
3684.6
3632.87
3590.27
3556.53
3531.18
3513.58
3503.06
3498.9
3500.47
3507.19
3518.63
3534.46
3554.49
3578.6
3606.72
3638.77
3674.65
3714.11
3756.77
3802.06
3849.19
3897.17
3944.81
3990.78
4033.68
4072.07
4104.61
4130.15
4147.77
4156.88
4157.28
4149.16
4133.14
4110.16
4081.51
4048.67
4013.24
3976.85
3941.01
3907.05
3876.02
3848.62
3825.23
3805.82
3790.07
3777.35
3766.76
3757.22
3747.42
3735.77
3720.2
3697.67
3663.21
3608.07
3516.07
3356.74
3071.83
2549.2
1571.52
303.181
451.522
15000
14994.5
14985.3
14970.5
14948.3
14916
14870.9
14809.4
14727.9
14622.3
14488.5
14322.4
14120.2
13878.5
13594.7
13266.9
12894.3
12477.6
12018.5
11519.9
10986.4
10423.3
9837.03
9234.91
8624.58
8013.96
7410.89
6822.85
6256.74
5718.65
5213.68
4745.87
4318.15
3932.3
3589.05
3288.16
3028.56
2808.44
2625.48
2476.92
2359.78
2270.9
2207.13
2165.34
2142.54
2135.9
2142.79
2160.81
2187.81
2221.86
2261.31
2304.76
2351.07
2399.36
2448.98
2499.54
2550.85
2602.93
2655.92
2710.13
2765.87
2823.53
2883.44
2945.88
3011.01
3078.92
3149.58
3222.89
3298.69
3376.85
3457.28
3540
3625.12
3712.89
3803.59
3897.52
3994.88
4095.66
4199.54
4305.8
4413.33
4520.63
4625.92
4727.27
4822.81
4910.88
4990.21
5060.04
5120.14
5170.75
5212.5
5246.22
5272.76
5292.82
5306.86
5315.04
5317.27
5313.33
5303
5286.23
5263.3
5234.87
5202.04
5166.23
5129.08
5092.27
5057.28
5025.25
4996.82
4972
4950.24
4930.38
4910.84
4889.77
4865.18
4835.19
4798.18
4752.93
4698.71
4635.39
4563.37
4483.61
4397.53
4306.9
4213.72
4120.12
4028.16
3939.82
3856.81
3780.54
3712.08
3652.15
3601.1
3558.96
3525.52
3500.33
3482.82
3472.37
3468.31
3470.05
3477.07
3488.94
3505.37
3526.13
3551.08
3580.1
3613.04
3649.72
3689.79
3732.8
3778.07
3824.75
3871.79
3917.97
3961.97
4002.43
4037.98
4067.41
4089.68
4104.02
4110.01
4107.6
4097.13
4079.3
4055.17
4026.04
3993.4
3958.82
3923.84
3889.87
3858.11
3829.44
3804.44
3783.32
3765.94
3751.82
3740.26
3730.28
3720.75
3710.37
3697.57
3680.35
3655.8
3619.15
3561.94
3468.49
3309.05
3026.74
2512.96
1565.81
303.212
451.4
15000
14994.6
14985.4
14970.9
14948.9
14917.1
14872.6
14811.9
14731.4
14627.2
14495.1
14331.1
14131.4
13892.5
13611.8
13287.4
12918.5
12505.4
12049.8
11554.7
11024
10463.3
9878.67
9277.35
8666.92
8055.23
7450.13
6859.15
6289.25
5746.61
5236.49
4763.05
4329.34
3937.3
3587.78
3280.65
3014.9
2788.83
2600.14
2446.16
2323.91
2230.29
2162.15
2116.42
2090.12
2080.45
2084.8
2100.79
2126.24
2159.24
2198.09
2241.33
2287.75
2336.37
2386.46
2437.51
2489.22
2541.5
2594.43
2648.23
2703.2
2759.7
2818.09
2878.71
2941.81
3007.55
3076.02
3147.2
3221.04
3297.47
3376.45
3458.01
3542.27
3629.44
3719.8
3813.62
3911.09
4012.21
4116.69
4223.89
4332.76
4441.86
4549.46
4653.65
4752.52
4844.35
4927.76
5001.83
5066.18
5120.9
5166.5
5203.72
5233.35
5256.12
5272.5
5282.73
5286.78
5284.45
5275.54
5260.01
5238.06
5210.29
5177.72
5141.7
5103.79
5065.66
5028.81
4994.42
4963.23
4935.38
4910.45
4887.43
4864.9
4841.12
4814.23
4782.43
4744.14
4698.17
4643.8
4580.83
4509.65
4431.13
4346.61
4257.77
4166.53
4074.91
3984.93
3898.45
3817.15
3742.39
3675.21
3616.32
3566.08
3524.54
3491.51
3466.59
3449.28
3438.98
3435.09
3437.07
3444.42
3456.75
3473.76
3495.22
3520.96
3550.79
3584.52
3621.85
3662.38
3705.54
3750.58
3796.58
3842.42
3886.9
3928.69
3966.48
3999.01
4025.15
4044.01
4054.99
4057.82
4052.61
4039.82
4020.28
3995.12
3965.66
3933.39
3899.84
3866.45
3834.52
3805.1
3778.95
3756.47
3737.72
3722.41
3709.97
3699.55
3690.14
3680.54
3669.46
3655.35
3636.31
3609.54
3570.51
3511.1
3416.12
3256.71
2977.61
2473.41
1544.43
303.217
451.795
15000
14994.7
14985.6
14971.1
14949.4
14917.9
14873.7
14813.7
14734
14630.8
14500.1
14337.9
14140.3
13903.9
13626.1
13305
12939.7
12530.3
12078.6
11587.1
11059.9
10502.1
9919.87
9320.17
8710.47
8098.56
7492.23
6899.03
6325.96
5779.31
5264.41
4785.58
4346.01
3947.78
3591.87
3278.26
3006.08
2773.69
2578.89
2419.04
2291.22
2192.36
2119.37
2069.18
2038.86
2025.62
2026.9
2040.31
2063.7
2095.13
2132.89
2175.49
2221.64
2270.28
2320.59
2371.94
2423.94
2476.39
2529.28
2582.73
2637.01
2692.46
2749.44
2808.32
2869.42
2932.99
2999.21
3068.17
3139.89
3214.39
3291.68
3371.83
3454.95
3541.25
3631
3724.43
3821.75
3922.96
4027.8
4135.7
4245.66
4356.31
4465.99
4572.81
4674.84
4770.3
4857.71
4936.02
5004.68
5063.66
5113.32
5154.3
5187.35
5213.17
5232.27
5244.91
5251.1
5250.71
5243.53
5229.48
5208.73
5181.82
5149.66
5113.53
5074.96
5035.56
4996.87
4960.12
4926.14
4895.21
4867.03
4840.78
4815.18
4788.62
4759.35
4725.67
4686.06
4639.35
4584.8
4522.22
4451.9
4374.67
4291.78
4204.82
4115.61
4026.08
3938.17
3853.68
3774.21
3701.08
3635.32
3577.6
3528.29
3487.47
3454.98
3430.45
3413.43
3403.37
3399.73
3401.99
3409.71
3422.51
3440.09
3462.21
3488.66
3519.21
3553.59
3591.43
3632.23
3675.33
3719.92
3764.99
3809.41
3851.94
3891.3
3926.23
3955.55
3978.27
3993.65
4001.23
4000.9
3992.94
3977.93
3956.8
3930.73
3901.1
3869.37
3837
3805.34
3775.57
3748.6
3725.03
3705.1
3688.73
3675.47
3664.64
3655.29
3646.33
3636.55
3624.61
3609.04
3588.02
3558.92
3517.42
3455.76
3359.32
3200.16
2924.68
2430.64
1524.52
303.21
452.995
15000
14994.7
14985.6
14971.2
14949.6
14918.2
14874.3
14814.5
14735.4
14632.9
14503.2
14342.2
14146.2
13911.9
13636.6
13318.4
12956.4
12550.7
12102.7
11615.1
11091.6
10537.3
9958.16
9360.85
8752.75
8141.53
7534.9
6940.38
6364.99
5815.05
5296.02
4812.3
4367.25
3963.06
3600.87
3280.81
3002.11
2763.24
2562.08
2396.07
2262.34
2157.88
2079.61
2024.52
1989.7
1972.42
1970.11
1980.42
2001.22
2030.57
2066.75
2108.22
2153.66
2201.95
2252.17
2303.6
2355.73
2408.26
2461.08
2514.22
2567.9
2622.39
2678.07
2735.31
2794.49
2855.92
2919.88
2986.53
3056.01
3128.41
3203.79
3282.26
3363.96
3449.11
3537.94
3630.69
3727.56
3828.56
3933.48
4041.78
4152.54
4264.47
4375.95
4485.13
4590.09
4688.99
4780.28
4862.77
4935.79
4999.13
5053.04
5098.03
5134.81
5164.02
5186.19
5201.61
5210.32
5212.19
5207.03
5194.75
5175.45
5149.6
5118.03
5081.96
5042.85
5002.29
4961.83
4922.78
4886.04
4852.03
4820.62
4791.12
4762.4
4733.02
4701.34
4665.75
4624.79
4577.32
4522.6
4460.4
4390.98
4315.07
4233.85
4148.82
4061.7
3974.35
3888.59
3806.17
3728.63
3657.24
3593
3536.56
3488.3
3448.31
3416.45
3392.42
3375.78
3366.05
3362.72
3365.32
3373.44
3386.71
3404.85
3427.58
3454.66
3485.82
3520.71
3558.88
3599.75
3642.59
3686.49
3730.4
3773.17
3813.54
3850.28
3882.17
3908.17
3927.38
3939.23
3943.41
3939.99
3929.35
3912.24
3889.66
3862.85
3833.21
3802.15
3771.08
3741.26
3713.72
3689.22
3668.22
3650.79
3636.7
3625.37
3615.99
3607.53
3598.83
3588.65
3575.68
3558.5
3535.39
3503.88
3459.92
3396.09
3298.36
3139.76
2868.48
2385.76
1503.75
303.175
454.414
15000
14994.7
14985.6
14971.2
14949.5
14918.1
14874.1
14814.4
14735.4
14633.2
14504
14343.7
14148.8
13916
13642.6
13326.7
12967.5
12565
12120.7
11636.9
11117.4
10567
9991.35
9397.11
8791.43
8181.82
7575.88
6981.04
6404.3
5852
5329.66
4841.79
4391.86
3982.21
3614.11
3287.84
3002.74
2757.42
2549.85
2377.54
2237.71
2127.38
2043.54
1983.21
1943.51
1921.75
1915.39
1922.13
1939.83
1966.58
2000.66
2040.51
2084.79
2132.3
2182.07
2233.28
2285.33
2337.8
2390.48
2443.32
2496.44
2550.07
2604.55
2660.26
2717.61
2776.97
2838.68
2902.99
2970.14
3040.27
3113.55
3190.1
3270.12
3353.8
3441.41
3533.17
3629.27
3729.75
3834.43
3942.8
4054.04
4166.91
4279.87
4391.12
4498.73
4600.85
4695.85
4782.43
4859.79
4927.58
4985.88
5035.13
5075.91
5108.86
5134.46
5153.02
5164.59
5169.07
5166.25
5156.02
5138.43
5113.88
5083.13
5047.3
5007.82
4966.26
4924.18
4882.93
4843.54
4806.53
4771.92
4739.19
4707.39
4675.19
4641.1
4603.58
4561.26
4513.02
4458.12
4396.31
4327.78
4253.21
4173.68
4090.61
4005.62
3920.48
3836.93
3756.65
3681.09
3611.52
3548.86
3493.79
3446.67
3407.6
3376.48
3353.03
3336.86
3327.53
3324.58
3327.57
3336.11
3349.85
3368.51
3391.79
3419.42
3451.06
3486.31
3524.64
3565.39
3607.75
3650.74
3693.28
3734.18
3772.21
3806.15
3834.89
3857.47
3873.14
3881.47
3882.3
3875.86
3862.68
3843.61
3819.74
3792.35
3762.84
3732.59
3702.93
3674.98
3649.67
3627.61
3609.07
3593.99
3581.97
3572.33
3564.14
3556.28
3547.57
3536.74
3522.52
3503.56
3478.26
3444.34
3397.99
3332.19
3233.46
3075.8
2809.03
2336.39
1468.37
303.101
454.987
15000
14994.6
14985.5
14970.9
14949.1
14917.5
14873.3
14813.4
14734.1
14631.8
14502.4
14342.3
14147.8
13915.8
13643.6
13329.4
12972.5
12572.8
12131.6
11651.5
11135.9
10589.5
10017.8
9427.16
8824.62
8217.46
7613.16
7019.02
6441.97
5888.34
5363.68
4872.56
4418.56
4004.13
3630.7
3298.66
3007.51
2755.97
2542.11
2363.55
2217.57
2101.27
2011.68
1945.86
1901
1874.41
1863.62
1866.34
1880.48
1904.14
1935.61
1973.35
2015.97
2062.26
2111.17
2161.81
2213.5
2265.72
2318.15
2370.63
2423.21
2476.04
2529.43
2583.73
2639.36
2696.73
2756.23
2818.21
2882.96
2950.72
3021.72
3096.14
3174.21
3256.15
3342.23
3432.67
3527.68
3627.3
3731.38
3839.49
3950.86
4064.33
4178.42
4291.4
4401.36
4506.44
4604.94
4695.49
4777.14
4849.4
4912.23
4965.92
5010.98
5047.96
5077.33
5099.38
5114.17
5121.59
5121.44
5113.56
5097.97
5074.98
5045.29
5009.95
4970.33
4927.97
4884.45
4841.19
4799.28
4759.4
4721.7
4685.83
4650.99
4616.01
4579.52
4540.1
4496.41
4447.39
4392.31
4330.87
4263.22
4189.98
4112.14
4031.03
3948.18
3865.25
3783.93
3705.8
3632.27
3564.54
3503.53
3449.89
3403.97
3365.89
3335.58
3312.79
3297.16
3288.29
3285.76
3289.17
3298.15
3312.35
3331.49
3355.26
3383.34
3415.35
3450.81
3489.12
3529.56
3571.23
3613.11
3654.07
3692.92
3728.44
3759.47
3784.97
3804.08
3816.22
3821.07
3818.65
3809.32
3793.75
3772.89
3747.91
3720.11
3690.87
3661.54
3633.33
3607.28
3584.15
3564.39
3548.13
3535.15
3524.91
3516.61
3509.22
3501.6
3492.5
3480.7
3464.97
3444.07
3416.52
3380.24
3331.67
3264.17
3164.82
3008.52
2746.54
2284.27
1438.52
303.043
456.377
15000
14994.5
14985.3
14970.6
14948.5
14916.5
14871.9
14811.5
14731.7
14628.7
14498.9
14338.4
14143.7
13911.7
13640
13326.9
12971.4
12573.9
12135.5
11658.6
11146.6
10604.2
10036.5
9449.89
8851.02
8247.04
7645.22
7052.73
6476.4
5922.51
5396.57
4903.21
4446.07
4027.72
3649.7
3312.53
3015.85
2758.49
2538.65
2354.04
2202.02
2079.77
1984.37
1912.95
1862.73
1831.07
1815.53
1813.86
1824.03
1844.15
1872.54
1907.66
1948.14
1992.72
2040.33
2090.03
2141.03
2192.74
2244.73
2296.77
2348.78
2400.85
2453.22
2506.21
2560.24
2615.72
2673.1
2732.77
2795.11
2860.43
2929.01
3001.12
3077.01
3156.95
3241.2
3330.02
3423.6
3522.02
3625.16
3732.66
3843.78
3957.48
4072.35
4186.7
4298.68
4406.43
4508.2
4602.54
4688.39
4765.13
4832.56
4890.86
4940.42
4981.71
5015.16
5041.02
5059.37
5070.06
5072.9
5067.68
5054.38
5033.25
5004.9
4970.31
4930.81
4887.91
4843.2
4798.14
4753.93
4711.35
4670.71
4631.83
4594.04
4556.35
4517.5
4476.18
4431.14
4381.33
4326.04
4264.94
4198.16
4126.22
4050.04
3970.85
3890.11
3809.39
3730.27
3654.29
3582.79
3516.92
3457.57
3405.37
3360.69
3323.66
3294.21
3272.12
3257.09
3248.73
3246.66
3250.51
3259.92
3274.57
3294.15
3318.34
3346.77
3379.01
3414.52
3452.65
3492.58
3533.38
3573.96
3613.17
3649.81
3682.7
3710.72
3732.92
3748.58
3757.22
3758.69
3753.15
3741.1
3723.33
3700.87
3674.96
3646.92
3618.09
3589.77
3563.05
3538.86
3517.8
3500.16
3485.92
3474.7
3465.84
3458.44
3451.41
3443.56
3433.66
3420.53
3403.02
3380.01
3350.17
3311.63
3261.09
3192.23
3092.71
2938.27
2681.69
2231.51
1412.42
302.963
457.775
15000
14994.5
14985
14970.1
14947.7
14915.3
14870.1
14809
14728.3
14624.5
14493.7
14332.3
14136.9
13904.4
13632.6
13319.7
12965.1
12569
12132.7
11658.6
11149.9
10611.2
10047.5
9465.01
8870.14
8269.84
7671.19
7081.17
6506.49
5953.32
5427.14
4932.58
4473.31
4051.98
3670.22
3328.69
3027.13
2764.51
2539.13
2348.82
2191.01
2062.97
1961.84
1884.81
1829.14
1792.24
1771.73
1765.4
1771.23
1787.41
1812.28
1844.31
1882.15
1924.56
1970.4
2018.72
2068.66
2119.56
2170.89
2222.32
2273.68
2324.99
2376.39
2428.17
2480.7
2534.42
2589.77
2647.21
2707.16
2770.01
2836.1
2905.75
2979.27
3056.97
3139.12
3226.01
3317.85
3414.75
3516.61
3623.13
3733.66
3847.22
3962.48
4077.84
4191.5
4301.6
4406.38
4504.31
4594.23
4675.39
4747.46
4810.47
4864.71
4910.54
4948.34
4978.33
5000.53
5014.82
5020.96
5018.72
5008.02
4989.04
4962.33
4928.81
4889.73
4846.59
4800.97
4754.39
4708.11
4663.05
4619.66
4577.9
4537.29
4496.97
4455.82
4412.63
4366.23
4315.62
4260.09
4199.31
4133.33
4062.64
3988.06
3910.75
3832.07
3753.49
3676.54
3602.67
3533.16
3469.13
3411.44
3360.7
3317.27
3281.29
3252.73
3231.38
3216.97
3209.14
3207.56
3211.85
3221.69
3236.75
3256.72
3281.24
3309.91
3342.26
3377.69
3415.46
3454.71
3494.45
3533.56
3570.87
3605.17
3635.32
3660.28
3679.19
3691.43
3696.67
3694.89
3686.4
3671.82
3652.06
3628.22
3601.58
3573.47
3545.18
3517.93
3492.72
3470.32
3451.17
3435.42
3422.87
3413.02
3405.09
3398.1
3390.92
3382.34
3371.19
3356.35
3336.8
3311.53
3279.42
3238.77
3186.54
3116.75
3017.55
2865.51
2614.89
2176.8
1379.13
302.856
457.646
15000
14994.4
14984.8
14969.6
14946.8
14913.9
14868.1
14806.1
14724.5
14619.6
14487.7
14325.1
14128.5
13895
13622.5
13309.3
12954.9
12559.6
12124.8
11652.7
11146.9
10611.4
10051.6
9473.04
8882.26
8285.92
7690.88
7103.96
6531.68
5980.1
5454.62
4959.84
4499.42
4076.07
3691.49
3346.44
3040.76
2773.54
2543.19
2347.63
2184.41
2050.85
1944.18
1861.63
1800.53
1758.34
1732.72
1721.5
1722.73
1734.62
1755.56
1784.08
1818.82
1858.55
1902.17
1948.65
1997.13
2046.86
2097.24
2147.86
2198.45
2248.94
2299.39
2350.02
2401.17
2453.23
2506.68
2561.98
2619.61
2680
2743.56
2810.66
2881.68
2956.94
3036.77
3121.47
3211.28
3306.33
3406.59
3511.79
3621.36
3734.41
3849.71
3965.71
4080.69
4192.81
4300.3
4401.59
4495.41
4580.89
4657.58
4725.36
4784.39
4834.96
4877.33
4911.69
4938.04
4956.22
4965.96
4967
4959.21
4942.71
4917.97
4885.84
4847.51
4804.45
4758.24
4710.43
4662.37
4615.08
4569.15
4524.69
4481.39
4438.52
4395.13
4350.1
4302.35
4250.91
4195.1
4134.57
4069.34
3999.82
3926.78
3851.26
3774.56
3698.06
3623.21
3551.38
3483.81
3421.58
3365.5
3316.19
3274
3239.08
3211.4
3190.8
3177.01
3169.74
3168.63
3173.36
3183.6
3199.04
3219.32
3244.09
3272.9
3305.22
3340.41
3377.67
3416.08
3454.59
3492.08
3527.34
3559.21
3586.57
3608.45
3624.09
3633
3634.96
3630.1
3618.86
3601.98
3580.45
3555.46
3528.3
3500.29
3472.67
3446.55
3422.83
3402.1
3384.68
3370.53
3359.32
3350.41
3342.92
3335.82
3327.96
3318.16
3305.32
3288.43
3266.6
3239
3204.67
3162.13
3108.55
3038.29
2939.92
2790.82
2546.55
2120.39
1341.17
302.717
456.152
15000
14994.3
14984.5
14969.1
14945.9
14912.5
14866.1
14803.3
14720.7
14614.6
14481.4
14317.4
14119.5
13884.7
13611.1
13297.2
12942.5
12547.5
12113.5
11642.9
11139.2
10606.6
10050
9475.23
8888.39
8296.02
7704.81
7121.35
6552.01
6002.7
5478.7
4984.55
4523.89
4099.44
3712.95
3365.24
3056.24
2785.14
2550.46
2350.21
2182.02
2043.3
1931.36
1843.49
1777.07
1729.62
1698.83
1682.6
1679.02
1686.35
1703.03
1727.63
1758.83
1795.44
1836.35
1880.54
1927.12
1975.29
2024.4
2073.95
2123.59
2173.16
2222.63
2272.16
2322
2372.53
2424.21
2477.49
2532.89
2590.88
2651.92
2716.45
2784.85
2857.54
2934.86
3017.15
3104.67
3197.6
3295.95
3399.51
3507.79
3619.98
3734.93
3851.21
3967.15
4080.95
4190.84
4295.21
4392.71
4482.38
4563.61
4636.16
4700.06
4755.47
4802.6
4841.55
4872.28
4894.61
4908.23
4912.84
4908.27
4894.56
4872.12
4841.72
4804.5
4761.87
4715.4
4666.69
4617.15
4567.89
4519.64
4472.68
4426.82
4381.52
4335.95
4289.1
4239.98
4187.69
4131.55
4071.2
4006.63
3938.2
3866.58
3792.77
3717.95