<?xml version="1.0"?>
<VTKFile type="PolyData" version="0.1" byte_order="LittleEndian">
  <PolyData>
    <Piece NumberOfPoints="50000" NumberOfVerts="50000" NumberOfLines="0" NumberOfStrips="0" NumberOfPolys="0">
      <Points>
        <DataArray type="Float32" NumberOfComponents="3" format="ascii">
0.182329 0.00430538 0
-0.172195 0.00173226 0
0.176445 -0.000786051 0
0.184333 -0.000548041 0
-0.149605 0.00328396 0
-0.125564 0.00141811 0
0.0606401 -0.0112941 0
-0.154885 0.000408137 0
0.0536322 -0.00872228 0
-0.0117001 0.00449031 0
0.138299 -0.00531004 0
0.176027 0.0039673 0
-0.1006 0.00363561 0
-0.0710547 -0.0106246 0
-0.188069 0.00145977 0
0.142522 0.00596709 0
-0.0258368 -0.000532964 0
0.182743 0.00115874 0
0.0694568 0.001071 0
-0.17235 0.00211612 0
-0.180702 0.0029329 0
0.158237 0.00347388 0
-0.178209 0.00159056 0
0.178345 0.000410381 0
0.113514 -0.0053509 0
0.132554 0.00628288 0
-0.176487 -0.00299145 0
0.183143 -0.00112505 0
-0.126067 0.0110973 0
-0.18616 0.00455453 0
-0.139821 0.0059245 0
-0.129721 -0.0070506 0
0.181456 0.000786201 0
0.182483 -6.58096e-05 0
0.0350107 0.00275865 0
0.185625 -0.000329091 0
0.0565522 0.00110466 0
-0.184727 0.00157589 0
-0.17246 -0.00194376 0
-0.1918 -0.000702579 0
0.133604 0.00639146 0
0.141345 0.00321683 0
-0.176442 -0.000644065 0
0.180309 0.000743585 0
0.186605 0.00101405 0
-0.181572 0.00440365 0
0.177722 0.00268256 0
0.0910361 -0.00636048 0
0.175334 0.00057446 0
0.179534 0.000502637 0
0.0751688 0.0101864 0
-0.178122 -3.96824e-05 0
-0.123462 0.00473752 0
0.177253 0.00176155 0
-0.175273 0.00156299 0
-0.186749 0.00163382 0
0.182496 -0.00014817 0
0.0736754 0.00571105 0
0.136287 0.00387115 0
0.188364 -0.00179129 0
0.153624 0.00260495 0
0.184484 0.00165231 0
0.0407828 -0.0141117 0
0.188253 -0.000368407 0
-0.0599274 0.00812917 0
-0.174801 0.00111506 0
0.178953 2.45113e-05 0
0.183703 0.00014216 0
0.189948 0.00227594 0
0.131614 0.000884593 0
-0.176718 0.00196121 0
0.178829 0.00215727 0
0.0980642 0.00103572 0
0.0997489 0.0035539 0
0.0851917 0.00278915 0
-0.179497 -0.00067081 0
0.155894 0.00610963 0
-0.170198 0.00245134 0
0.137649 0.0035672 0
-0.186325 0.00122943 0
-0.0932197 -0.01474 0
-0.182619 0.00248165 0
0.169131 0.0027872 0
-0.177604 0.000778163 0
0.188132 -0.00168877 0
-0.177889 0.00200077 0
0.188407 -0.00164907 0
-0.0796406 -0.00336529 0
-0.0769689 0.0108552 0
-0.179651 -0.00275209 0
0.177287 0.00349926 0
-0.175694 0.000202215 0
0.177902 -0.000350915 0
-0.120574 0.00931708 0
-0.0177308 -0.00932084 0
-0.157823 0.00287745 0
0.177841 0.00442983 0
-0.180988 0.00196903 0
-0.190973 0.00380861 0
-0.189207 3.85625e-05 0
-0.158418 -0.00290876 0
-0.17638 -0.00206942 0
0.189544 0.000189537 0
-0.0757672 -0.00878155 0
0.190883 0.000247183 0
0.156001 0.00618828 0
0.115452 0.00354337 0
0.00948796 0.00401104 0
0.175298 0.00252056 0
-0.178776 -0.00161254 0
-0.134231 0.00934296 0
-0.181224 0.00192588 0
-0.154369 0.00524453 0
127.473 184.397 0
0.119679 0.00380495 0
-0.178535 0.00211033 0
-0.185181 0.00248784 0
3.26293 4.46343 0
-0.180011 0.0012322 0
-0.00861975 -0.00337239 0
0.183214 -0.000140814 0
-0.173705 -0.00123312 0
0.123741 -0.00105976 0
-0.165735 0.00383465 0
0.179723 0.000183555 0
0.174743 6.97471e-05 0
0.0574537 0.0112129 0
0.184438 0.00248091 0
-0.160528 -0.00259825 0
0.139292 8.35562e-05 0
0.18571 -0.000925862 0
0.18416 0.000310415 0
-0.190082 0.000834028 0
-0.158483 0.00231635 0
0.188738 -0.000305553 0
0.179418 4.11536e-05 0
0.172867 -0.000764306 0
-0.0281736 0.00190311 0
0.144358 -0.00585779 0
0.140526 -0.00484582 0
0.144299 -0.00596223 0
0.171207 0.00482058 0
0.185389 -0.00101934 0
-0.0423432 -0.00576388 0
-0.184377 0.00351087 0
0.122799 -0.00958754 0
-0.117624 0.00948274 0
-0.181834 0.00138491 0
-0.129424 -0.00840863 0
-0.182437 0.00214325 0
0.139734 0.00381919 0
0.178234 0.00153484 0
-0.0549517 -0.00479965 0
0.144933 -0.00413012 0
0.144091 0.00425742 0
0.176828 0.00227235 0
0.120928 -0.00385524 0
-0.178846 0.00173254 0
-0.0767745 -0.00219138 0
0.184886 0.000335659 0
0.123534 -0.000244091 0
-0.162354 -0.000873746 0
-0.175717 0.00161306 0
-0.18273 0.00164024 0
-0.0468391 0.00497184 0
0.142299 -0.00234664 0
0.160826 -0.00201859 0
0.162812 0.00214927 0
0.136601 0.00409192 0
-0.0746937 0.000747059 0
0.190349 -0.00170141 0
-0.175127 0.00187736 0
-0.0411708 -0.00216029 0
0.184137 0.00247261 0
-0.0329792 -0.00106137 0
-0.141019 0.00754234 0
-0.175605 0.00159576 0
-0.106336 -0.00446904 0
-0.178106 -0.000584927 0
-0.178926 -0.00251044 0
0.17643 0.00045765 0
-0.180918 0.00335451 0
-0.178148 0.00290456 0
0.182241 0.00291828 0
0.177647 8.28225e-05 0
0.137123 -0.00728162 0
0.190755 -0.0010416 0
0.188628 0.000691116 0
0.183052 -0.00116442 0
0.0206533 0.0136902 0
0.186141 -0.00115052 0
0.150604 -0.00361424 0
-0.120125 -0.00775439 0
0.167561 0.00337897 0
-0.165302 0.003341 0
0.176442 0.00128652 0
-0.14714 0.00575508 0
-0.15698 0.00286112 0
-0.176215 0.00220876 0
0.178743 0.00273974 0
-0.11736 0.00899215 0
0.188085 0.00171425 0
0.163195 -0.00197258 0
-0.0366217 -0.00270368 0
0.190632 -0.00174726 0
-0.173918 -0.00316286 0
0.0248461 0.0217628 0
0.0757546 -0.00250687 0
-0.157085 0.00529178 0
-0.110438 -0.00409342 0
0.174696 0.000759384 0
-0.0767827 -0.00893681 0
0.164473 -0.00116159 0
-0.1518 0.00543398 0
-0.103737 -0.00662643 0
-0.18266 0.00319341 0
-0.180221 0.00392796 0
0.181073 0.000367201 0
-0.18502 -0.000168529 0
-0.0213482 0.00990711 0
-0.142174 0.00575344 0
-0.184779 0.00209404 0
-0.171282 -0.00240937 0
0.189048 -0.000834407 0
0.0668835 0.0115581 0
-0.175726 0.00182748 0
0.189901 0.00100056 0
0.182417 0.000120819 0
-0.1559 0.00486707 0
-0.184263 0.000172329 0
-0.181356 -0.00129384 0
0.177564 0.00242575 0
0.0922852 0.0110853 0
-0.027552 0.00721553 0
-0.187556 0.00245107 0
-0.161279 0.00312167 0
0.139233 -0.00740248 0
-0.141785 -0.00155239 0
-0.179135 0.00196074 0
0.11055 -0.000836496 0
0.186447 0.000471372 0
-0.164675 -0.00263551 0
-0.181316 0.00197067 0
-0.10432 -0.00583723 0
0.0911797 0.00355768 0
0.162735 0.002366 0
-0.170918 0.00363552 0
0.18255 0.000120684 0
0.187687 0.00168538 0
0.10765 0.00612741 0
0.112373 0.00245085 0
-0.170314 0.00274232 0
0.176211 -0.000839898 0
-0.080203 -0.00375889 0
-0.164672 0.00413132 0
0.176571 0.000362151 0
-0.159602 0.00404097 0
0.156002 0.0045287 0
0.0677139 0.0109934 0
0.0979259 0.000622657 0
0.187674 0.000903976 0
-0.170253 0.00266441 0
0.0345635 -0.00323155 0
0.0175088 -0.0057999 0
-0.121267 0.00200657 0
-0.179067 0.000921876 0
-0.176193 0.00177257 0
-0.175154 -0.000194574 0
0.180941 3.09615e-05 0
0.179417 0.000124185 0
0.184851 5.91335e-05 0
-0.180731 -0.000861369 0
0.118625 0.00186576 0
0.00997274 0.00596679 0
-0.188583 0.00271862 0
-0.183304 0.00148479 0
0.175715 0.000313328 0
-0.175206 0.00181127 0
0.174189 0.00341584 0
-0.177896 -0.000215494 0
-0.172246 0.000388393 0
-0.0792424 -0.00982468 0
-0.180663 0.0015579 0
0.171479 -0.000503011 0
-0.153227 0.0052937 0
-0.172671 -0.00099156 0
-0.0681599 0.00940835 0
-0.180208 0.0019164 0
-0.182919 0.00216428 0
0.15471 -0.000911566 0
-0.0638754 0.00352175 0
0.180667 6.67374e-05 0
0.184607 -0.000819513 0
0.117556 0.00672989 0
0.187324 0.00198104 0
0.17817 0.00330066 0
0.186567 0.00238782 0
-0.123245 0.0109393 0
-0.1692 0.0013729 0
-0.187947 0.000874376 0
0.191417 0.000899129 0
-0.0250028 0.00379167 0
0.180018 -0.000305577 0
0.175827 0.00198262 0
0.185322 0.000150729 0
0.03202 0.00595317 0
-0.0943426 0.0116962 0
0.155939 0.00290008 0
-0.0212944 0.000648591 0
-0.0880054 0.00466971 0
-0.147622 0.00565808 0
0.180753 0.00350821 0
-0.130588 0.00700186 0
0.167013 -0.00193464 0
0.13772 -0.00165475 0
-0.187499 0.00327655 0
0.146675 -0.00613118 0
0.189559 -0.00185008 0
0.169464 -0.000875467 0
0.181322 0.00384112 0
-0.182913 0.00286918 0
-0.0396631 0.00722923 0
0.184695 0.00141929 0
0.183964 6.42853e-05 0
0.0847943 0.0115973 0
-0.174652 0.000241669 0
-0.171096 0.0027269 0
0.18932 0.00071223 0
-0.174767 -0.00089871 0
0.182842 0.00162175 0
0.184022 -0.000606314 0
0.088026 -0.0100277 0
0.176083 0.0020662 0
-0.179601 0.00194745 0
-0.153387 0.000190961 0
-0.10286 -0.000670287 0
0.014931 -0.00298811 0
0.0222071 -0.0126213 0
-0.164709 0.00197775 0
0.0818889 -0.0111849 0
-0.0186569 0.0185673 0
-0.185554 0.00319123 0
-0.132194 0.00659506 0
-0.181056 0.00246008 0
-0.074527 -0.0056197 0
0.184051 0.00360073 0
-0.128304 0.00734885 0
-0.183418 0.000424862 0
-26.89 111.226 0
0.183563 -0.0018627 0
0.18296 -4.9199e-06 0
-0.148986 0.00683055 0
0.178068 0.00183901 0
0.16881 3.63333e-05 0
-245.171 -438.449 0
0.0562349 0.00704858 0
-0.181488 0.00213017 0
-0.15051 -0.000637171 0
0.181541 0.00208456 0
1.76552 -3.63546 0
0.171768 0.00273245 0
-0.177699 -0.00226271 0
-0.113013 0.000592801 0
-0.180466 -0.00102884 0
-0.183885 0.00349045 0
0.180251 3.84403e-05 0
-0.186476 -0.000173931 0
-0.161595 0.00459504 0
0.14128 0.00613288 0
-0.175775 0.000496168 0
-0.146247 0.00683784 0
-0.162438 0.00416491 0
0.182016 0.00239068 0
0.164168 -0.002645 0
-0.107828 0.00902733 0
0.187307 -0.000433199 0
-0.181632 -0.00208865 0
-0.168501 -0.00115401 0
-0.183545 0.00103151 0
0.016261 -0.0134034 0
-0.176766 -0.00195213 0
0.179859 0.00242692 0
-0.179893 0.00212998 0
-0.179127 0.00135926 0
-0.0436525 0.00726963 0
0.117546 0.00664306 0
-0.057938 0.016809 0
0.0389149 0.00974444 0
-0.181677 0.00222802 0
-0.0323806 0.00211619 0
-0.182087 2.69368e-05 0
-0.182945 0.00293992 0
0.175661 -0.00211196 0
0.15447 0.00472996 0
-0.170923 0.0033651 0
0.163455 0.0027149 0
0.162043 0.00111167 0
-0.17448 0.00185328 0
-0.0959294 -0.00269313 0
0.128092 -0.00723966 0
-0.174864 0.000840879 0
0.155216 -0.00350233 0
0.0713591 -0.00165832 0
-0.179406 3.20493e-05 0
0.168654 0.00022955 0
0.177402 -0.000539028 0
0.180385 -0.00160432 0
0.183692 -0.000186482 0
0.186708 0.000528736 0
0.177233 0.00363171 0
-0.18079 0.00172204 0
0.130468 0.00484772 0
-0.149011 -0.00178248 0
0.0856207 0.0124791 0
-0.17017 0.00170657 0
-0.0603485 -0.00201217 0
-0.140825 0.00577457 0
0.0520299 -0.00578979 0
-0.184523 0.00223627 0
0.17729 3.37414e-05 0
-0.0491854 0.0137486 0
0.0635549 0.00749476 0
-0.186984 0.00199906 0
[...]
      <PointData Scalars="T">
        <DataArray type="Float32" Name="T" format="ascii" NumberOfComponents="1">
310.079
370.561
310.914
310.914
364.098
399.927
310.914
419.13
310.914
364.098
310.914
310.079
364.098
371.294
402.817
310.079
371.294
300.818
300.736
364.098
364.098
310.079
388.118
301.341
310.914
310.079
371.294
310.914
364.098
364.098
364.098
371.294
300.618
310.914
310.079
310.914
300.795
393.642
371.294
371.294
310.079
310.079
371.294
300.665
300.551
364.098
310.079
310.914
300.96
301.098
310.079
371.294
364.098
303.744
397.206
383.641
310.914
310.079
310.079
310.914
310.079
302.768
310.914
310.914
364.098
421.529
302.341
301.97
310.079
300.574
364.098
310.079
300.57
310.079
310.079
371.294
310.079
364.098
310.079
406.238
371.294
364.098
310.079
402.331
310.914
364.098
310.914
371.294
364.098
371.294
310.079
418.419
310.914
364.098
371.294
364.098
310.079
364.098
364.098
432.229
371.294
371.294
301.907
371.294
301.84
310.079
310.079
310.079
310.079
371.294
364.098
364.098
364.098
310.079
310.079
364.098
364.098
310.079
407.125
371.294
310.914
371.294
310.914
364.098
301.907
302.035
310.079
310.079
371.294
301.997
310.914
301.473
416.271
364.098
310.914
302.161
310.914
359.993
310.914
310.914
310.914
310.079
310.914
371.294
364.098
310.914
364.098
399.931
371.294
364.098
310.079
301.861
371.294
310.914
310.079
310.079
310.914
370.561
371.294
301.415
310.914
371.294
385.463
382.852
364.098
310.914
310.914
310.079
310.079
401.676
310.914
361.663
371.294
310.079
371.294
364.098
388.118
371.294
371.294
371.294
301.282
364.098
364.098
310.079
301.997
310.914
310.914
300.725
310.914
310.079
310.914
310.914
371.294
310.079
364.098
300.874
364.098
364.098
364.098
310.079
364.098
303.277
310.914
371.294
310.914
371.294
310.079
310.914
364.098
371.294
300.652
371.294
310.914
364.098
371.294
364.098
364.098
301.33
371.294
364.098
364.098
364.098
371.294
310.914
310.079
363.563
300.549
301.968
364.098
421.493
371.294
310.079
310.079
364.098
364.098
364.098
310.914
371.294
364.098
310.914
301.212
371.294
364.098
371.294
310.079
310.079
364.098
301.968
303.075
310.079
310.079
364.098
310.914
371.294
364.098
301.33
364.098
310.079
310.079
300.815
300.553
364.098
310.914
310.914
364.098
413.998
366.503
371.294
302.252
301.968
302.078
371.294
304.331
310.079
364.098
403.62
301.473
363.913
310.079
371.294
417.439
371.294
398.794
310.914
364.098
371.294
364.098
364.098
364.098
310.914
364.098
302.035
310.914
310.079
310.079
310.079
310.079
364.098
400.438
414.081
300.57
364.098
310.914
310.079
301.967
310.079
364.098
310.079
398.75
364.098
364.098
310.079
364.098
310.914
310.914
364.098
310.914
310.914
310.914
310.079
364.098
364.098
301.109
302.035
310.079
419.722
364.098
300.695
371.294
302.692
310.914
310.914
310.079
364.098
420.389
371.294
310.914
310.914
364.098
310.914
364.098
364.098
364.098
364.098
371.294
310.079
364.098
420.73
364.098
310.914
310.914
364.098
304.097
302.252
371.294
310.079
364.098
371.294
310.079
310.914
310.079
371.294
404.59
371.294
364.098
302.252
371.294
364.098
310.079
414.303
364.098
364.098
310.079
310.914
364.098
310.914
371.294
371.294
420.311
310.914
371.294
310.079
364.098
402.312
364.098
310.079
364.098
310.079
364.098
364.098
432.944
364.098
310.914
310.079
364.098
310.079
300.788
362.152
371.294
310.914
415.142
310.914
310.914
432.229
301.85
310.914
310.914
310.914
301.03
310.079
371.552
310.079
371.294
310.079
375.778
371.294
364.098
310.914
364.098
302.252
364.098
310.079
364.098
300.99
301.856
310.079
310.914
364.098
385.463
310.914
364.098
310.079
382.852
310.079
421.21
371.294
364.098
364.098
310.079
300.818
364.098
310.914
398.75
425.284
371.294
364.098
371.294
310.079
310.914
371.294
302.274
371.294
371.294
310.914
310.914
371.294
364.098
401.676
371.294
300.587
371.294
300.778
364.098
371.294
301.839
310.079
371.294
371.294
364.098
364.098
310.079
401.609
310.914
302.161
310.079
364.098
364.098
364.098
301.361
310.079
406.868
371.294
371.294
384.673
300.781
310.079
301.97
300.517
364.098
310.079
310.079
300.531
365.549
310.079
310.914
425.284
310.914
364.373
364.098
364.098
371.294
425.284
371.294
371.294
371.294
310.914
310.914
310.914
310.079
310.914
310.079
310.079
371.294
310.079
377.718
310.914
310.079
364.098
310.079
364.098
407.125
364.098
406.868
310.079
310.914
310.079
310.914
310.914
310.914
364.098
310.079
310.079
401.901
310.079
401.609
364.098
371.294
310.914
310.914
364.098
364.098
371.294
371.294
371.294
310.079
310.079
301.109
310.079
371.294
364.098
310.079
364.098
300.64
310.079
371.294
364.098
310.914
364.098
310.079
310.079
371.294
310.079
371.294
310.914
415.976
364.098
300.795
310.914
371.294
371.294
410.98
370.561
364.098
310.079
310.914
310.914
300.57
310.079
371.294
404.59
419.91
371.294
364.098
310.079
310.914
364.098
310.079
371.294
300.531
310.079
300.815
390.106
310.079
371.294
419.591
310.079
310.914
371.294
310.079
364.098
310.914
310.914
310.079
301.668
371.294
371.294
364.098
422.568
310.079
371.294
310.914
371.294
371.294
310.079
301.473
371.294
371.294
364.098
364.098
310.914
310.914
364.098
416.327
371.294
310.079
310.914
361.663
364.098
310.914
310.914
310.079
310.079
388.118
371.294
371.294
371.294
371.294
310.079
364.098
310.079
303.198
371.294
364.098
301.437
310.914
371.294
364.098
310.914
371.294
371.294
365.549
310.914
371.294
400.464
310.079
364.098
379.595
310.914
310.079
362.152
310.079
310.914
399.978
310.079
301.967
364.098
364.098
310.914
301.856
301.473
310.079
310.079
419.711
418.318
364.098
364.098
310.079
364.098
371.294
300.606
310.079
364.098
400.523
364.098
302.341
310.079
310.079
310.079
364.098
301.88
310.914
409.423
364.098
303.198
302.41
310.079
310.079
302.274
364.098
310.079
304.052
310.914
364.098
310.079
364.098
310.914
304.66
310.914
310.079
310.914
364.098
301.073
411.834
310.079
363.913
364.098
364.098
310.914
371.294
310.079
364.098
301.473
310.079
371.294
310.914
410.98
371.294
420.492
400.464
364.098
364.098
301.997
310.914
310.914
301.522
310.914
404.988
310.079
360.494
418.799
310.914
310.914
368.611
300.59
364.098
310.079
364.098
364.098
364.098
371.294
371.294
300.606
364.098
310.079
364.098
371.294
364.098
371.294
371.294
301.33
310.079
310.914
364.098
371.294
364.098
399.931
371.294
364.098
371.294
310.079
361.925
371.294
310.914
310.914
301.97
403.62
364.098
371.294
310.079
371.294
300.793
364.098
371.294
371.294
310.079
301.522
310.079
300.874
310.914
364.098
364.098
310.914
364.098
310.079
403.62
310.079
385.463
371.294
303.976
364.098
300.883
364.098
364.098
310.914
300.795
371.294
310.079
310.914
300.859
310.079
364.098
371.294
419.711
310.079
364.098
300.887
310.079
310.914
310.914
421.665
364.098
300.88
364.098
364.098
310.914
301.473
310.079
310.914
364.098
371.294
310.079
364.098
301.861
310.079
359.993
364.098
303.455
411.517
310.914
301.969
364.098
364.098
310.914
300.606
364.098
371.294
371.294
310.079
300.887
404.988
364.098
382.816
403.518
371.294
310.914
364.098
310.914
402.817
310.914
301.668
402.729
310.914
400.523
310.079
310.914
364.098
371.294
303.541
310.914
310.079
310.079
310.079
310.079
364.098
310.079
310.914
417.808
310.914
310.079
364.098
301.344
310.914
310.079
364.098
364.098
371.294
310.914
371.294
310.914
371.294
390.106
364.098
310.079
371.294
418.467
371.294
310.914
421.21
364.098
310.914
302.581
371.294
371.294
310.914
364.098
310.914
310.914
371.294
310.079
371.294
301.491
310.914
310.079
310.914
310.079
310.079
364.098
301.782
310.914
310.914
364.098
302.161
371.294
364.098
371.294
310.914
310.079
371.552
371.294
364.098
310.914
364.098
364.098
301.259
301.968
310.079
310.079
364.098
400.464
310.914
364.098
310.079
364.098
371.294
300.88
371.294
310.914
364.098
371.294
364.098
364.098
364.098
404.988
371.294
364.098
364.098
310.079
411.834
310.914
310.914
310.914
310.914
310.079
364.098
301.415
364.098
310.079
364.098
310.079
301.264
371.294
310.079
364.098
310.914
310.079
310.914
371.294
310.914
364.098
300.587
371.294
371.294
310.079
371.294
364.098
364.098
371.294
310.914
310.079
310.079
310.079
371.294
310.914
429.021
310.914
300.755
310.079
310.079
303.976
310.914
310.914
371.294
310.079
304.024
371.294
364.098
310.914
364.098
300.551
364.098
371.294
364.098
401.609
371.294
362.152
302.768
371.294
310.079
403.929
310.914
364.098
310.079
364.098
364.098
310.079
310.079
364.098
310.914
310.079
301.128
300.64
371.294
364.098
416.701
418.643
310.914
364.098
300.877
364.098
364.098
310.914
310.914
364.098
310.079
310.914
301.098
310.914
364.098
301.282
310.079
364.098
364.098
364.098
371.294
364.098
310.914
359.993
310.914
371.294
300.961
310.914
310.079
361.663
371.294
371.294
364.098
310.914
310.079
371.294
310.914
300.774
371.294
371.294
310.914
364.098
300.842
310.914
310.079
371.294
364.098
364.098
364.098
310.079
420.164
310.079
400.438
364.098
301.968
310.079
310.079
310.914
310.079
417.439
412.014
371.294
363.913
301.97
303.004
310.079
310.079
310.079
310.079
371.294
364.098
364.098
364.098
417.6
362.152
365.549
300.877
310.914
310.914
301.95
310.914
363.913
310.914
364.098
300.63
371.294
364.098
310.079
397.206
415.665
302.078
420.311
310.914
310.914
310.914
310.914
310.079
310.079
310.914
310.079
371.294
300.612
399.931
310.079
310.079
301.212
371.294
310.914
371.294
310.079
310.079
310.079
310.079
364.098
310.914
364.098
310.079
301.259
310.914
418.794
417.433
416.271
310.914
310.914
371.294
310.079
382.816
303.075
310.914
371.294
364.098
409.423
310.914
310.079
364.098
302.035
364.098
303.198
364.098
364.098
404.472
364.098
310.914
310.914
371.294
364.098
364.098
364.098
310.914
371.294
310.079
364.098
310.079
303.644
364.098
375.778
310.079
364.098
301.598
310.914
310.914
364.098
300.652
310.914
371.294
364.098
310.914
364.098
301.969
364.098
364.098
301.972
371.294
371.294
301.357
301.3
310.079
310.914
310.079
371.294
302.128
310.079
364.098
364.098
310.914
363.913
310.079
300.531
404.238
371.552
310.079
418.794
402.331
300.736
310.914
420.102
402.817
310.914
364.098
410.332
371.294
431.399
364.098
310.914
310.914
364.098
364.098
310.914
371.294
310.914
310.079
310.079
364.098
364.098
310.914
402.331
310.079
364.098
310.079
310.914
399.931
310.914
310.914
371.294
363.563
371.294
371.294
359.993
364.098
364.098
364.098
310.079
301.353
310.914
364.098
310.914
364.098
367.466
301.415
361.663
364.098
310.079
367.466
371.294
310.914
371.294
371.294
310.079
364.098
310.079
301.715
310.914
310.914
364.098
303.541
300.871
364.098
364.098
310.079
364.098
364.098
300.778
310.914
301.839
371.294
302.035
364.098
300.874
310.914
412.305
361.925
364.373
310.914
301.33
364.098
364.098
364.098
371.294
301.586
371.294
310.914
371.294
371.294
301.166
310.079
310.914
371.294
310.079
310.914
310.079
403.014
310.914
412.605
416.528
364.098
371.552
405.553
371.294
371.294
310.079
304.45
371.294
364.098
364.098
310.914
364.098
364.098
364.098
371.294
371.294
310.914
310.914
310.079
364.098
310.079
310.079
301.978
371.294
310.914
300.925
310.079
300.595
310.079
364.098
410.98
418.241
364.098
401.326
302.41
371.294
371.294
310.079
364.098
371.294
364.098
401.676
390.106
364.098
420.73
310.914
371.294
371.294
364.098
371.294
364.098
310.914
371.294
364.098
310.914
310.914
310.914
371.294
371.294
364.098
310.079
362.152
371.294
300.904
364.098
364.098
364.098
310.079
364.098
310.079
310.079
310.914
371.294
310.914
300.883
371.294
419.818
310.914
310.079
371.294
364.098
364.098
310.914
364.098
432.229
364.098
310.079
310.079
310.914
310.079
371.294
364.098
361.925
310.914
310.079
364.098
310.079
310.079
416.701
371.294
371.294
310.079
310.079
310.079
385.463
310.079
415.976
310.079
364.098
364.098
401.087
303.91
301.522
310.914
310.914
371.294
310.914
310.914
404.238
368.611
310.079
310.079
301.03
364.098
310.914
361.139
310.914
310.079
310.914
300.736
419.711
364.098
419.13
310.079
310.914
310.914
301.839
364.098
310.079
364.098
302.128
301.341
310.079
371.294
300.914
368.611
310.079
310.079
310.914
418.318
310.914
310.914
310.914
310.914
310.079
411.245
310.079
310.914
364.098
371.294
419.663
399.197
364.098
364.098
399.476
364.098
310.914
301.972
371.294
310.079
364.098
403.559
390.106
310.914
371.294
371.294
303.198
310.914
310.079
310.079
310.079
401.087
303.152
310.079
310.914
310.079
364.098
300.684
407.125
371.294
371.294
310.914
371.294
364.098
364.098
364.098
364.098
364.098
411.517
364.098
302.701
310.079
310.914
373.594
310.914
382.852
310.914
310.079
364.098
300.724
301.03
310.079
310.079
310.914
402.85
310.914
300.575
364.098
310.079
400.873
310.079
364.098
310.914
301.33
364.098
364.098
371.294
364.098
371.294
364.098
310.914
310.914
310.914
371.294
310.079
364.098
301.968
371.294
310.079
363.913
364.098
371.294
364.098
301.312
310.914
371.294
310.914
310.079
371.294
364.098
301.212
310.079
364.098
310.079
310.079
310.914
301.437
310.914
371.294
364.098
371.294
371.294
310.079
310.914
310.079
300.781
310.914
364.098
418.643
419.13
310.914
300.568
301.907
310.914
364.098
310.914
310.079
310.079
310.079
301.361
310.079
364.098
364.098
364.098
310.079
375.778
364.098
301.772
300.553
301.3
300.522
364.098
310.079
364.098
310.079
310.079
364.098
310.914
371.294
371.294
371.294
301.969
371.294
371.294
401.564
371.294
422.991
364.098
371.294
371.294
403.014
310.914
364.098
364.098
310.079
310.079
310.914
302.019
310.079
373.594
364.098
310.079
371.294
371.294
310.079
397.206
371.294
301.109
310.079
310.914
364.098
364.098
310.914
364.098
364.098
310.914
429.036
300.736
300.997
310.914
301.978
364.098
364.098
364.098
310.914
373.594
364.098
364.098
364.098
371.294
364.098
310.079
371.294
364.098
367.466
310.079
364.098
310.914
364.098
401.676
310.079
362.152
371.294
310.914
301.968
430.085
417.808
415.976
301.344
402.331
363.913
402.954
371.294
364.098
371.294
371.294
310.079
310.914
371.294
364.098
310.914
310.079
310.914
371.294
310.914
310.914
310.079
310.079
364.098
371.294
364.098
373.594
301.233
400.464
310.079
390.106
371.294
371.294
310.914
300.502
371.294
364.098
302.252
403.011
310.079
310.914
310.079
310.914
310.914
310.079
397.206
371.294
371.294
364.098
310.914
301.415
371.294
301.098
405.273
364.098
364.098
371.294
364.098
303.198
310.914
370.561
371.294
301.967
310.079
364.098
310.914
364.098
301.84
310.914
301.967
364.098
310.079
310.914
310.914
310.079
371.294
300.502
371.294
371.294
310.914
301.907
371.294
402.701
310.079
310.914
310.914
371.294
371.294
362.152
303.075
304.024
371.294
310.079
310.914
415.106
310.914
310.079
364.098
371.294
420.492
364.098
364.098
407.128
364.098
364.098
302.768
371.294
300.546
371.294
371.294
310.079
400.438
364.098
364.098
371.294
310.914
364.098
371.294
302.322
364.098
406.803
364.098
310.079
301.969
304.543
310.914
371.294
371.294
363.913
421.493
398.794
364.098
371.294
363.209
388.118
310.914
310.079
310.079
300.889
300.618
371.294
416.327
310.079
310.079
371.294
371.294
367.466
310.914
401.087
364.098
364.098
310.914
364.098
310.914
310.079
300.606
310.914
364.098
310.079
364.098
364.098
371.294
310.079
364.098
310.079
300.818
301.216
301.33
364.098
371.294
300.851
301.341
300.793
310.079
310.079
302.41
371.294
310.914
310.914
364.098
418.693
359.993
310.914
301.856
310.914
390.106
401.087
364.098
310.079
364.098
310.079
399.594
300.957
310.914
310.914
301.907
364.098
310.079
371.294
300.925
301.353
310.079
364.098
371.294
371.294
364.098
371.294
371.294
301.073
364.098
417.808
310.914
310.914
301.967
364.098
364.098
371.294
371.294
310.079
364.098
418.419
371.294
304.45
364.098
419.8
302.035
363.563
310.079
371.294
310.914
385.463
371.294
310.079
364.098
310.914
429.021
364.098
310.914
310.079
371.294
363.563
364.098
302.161
364.098
371.294
301.978
419.13
310.079
310.079
418.241
310.079
310.914
310.914
310.914
300.89
371.294
310.914
310.079
411.517
310.079
364.098
371.294
371.294
364.098
371.294
310.914
371.294
310.079
310.079
310.079
310.914
310.079
310.914
310.914
310.079
371.294
302.581
310.079
371.294
310.914
310.914
303.744
300.57
371.294
310.914
310.914
371.294
310.079
371.294
371.294
310.914
364.098
364.098
310.914
364.098
302.274
300.88
310.079
301.967
310.914
310.914
310.914
301.473
300.587
364.098
371.294
419.591
303.976
300.851
364.098
310.914
310.914
417.808
310.914
310.079
310.914
310.914
310.914
365.004
310.079
302.41
364.098
310.914
371.294
310.079
301.967
310.079
364.098
371.294
310.079
364.098
364.098
310.914
310.914
310.914
364.098
310.079
300.612
413.211
369.446
310.914
310.914
310.079
371.294
371.294
371.294
302.019
310.079
310.914
419.722
364.098
310.914
300.839
310.079
310.079
310.914
364.098
310.079
371.294
310.079
364.098
364.098
302.24
310.079
364.098
398.452
310.079
371.294
412.123
407.504
412.605
364.098
366.503
371.294
310.914
310.914
421.526
302.888
419.91
310.079
310.914
371.294
301.972
310.914
364.098
310.914
406.719
399.594
364.098
364.098
310.079
310.079
310.914
371.294
310.914
371.294
310.914
310.914
385.463
371.294
364.098
300.778
300.883
310.079
301.098
371.294
310.914
364.098
302.41
364.098
301.967
364.098
364.098
310.079
310.914
371.294
301.33
364.098
303.889
364.098
371.294
371.294
371.294
310.914
364.098
371.294
406.719
371.294
371.294
310.914
364.098
310.914
310.914
310.079
310.914
310.079
310.914
364.098
371.294
401.609
310.079
310.079
366.503
310.914
301.357
301.968
310.914
364.098
364.098
310.079
310.079
310.914
301.473
415.142
300.551
371.294
388.118
364.098
310.914
364.098
300.736
371.294
310.914
364.098
371.294
310.079
364.098
310.079
310.914
310.079
422.078
419.91
300.977
310.914
310.914
310.914
310.079
419.722
310.079
301.062
364.098
301.84
310.079
310.914
371.294
310.079
310.079
371.294
400.438
404.472
300.914
310.914
400.498
364.098
418.241
371.294
302.252
310.914
364.098
371.294
301.97
371.294
364.098
364.098
310.914
310.079
371.294
416.271
371.294
310.914
371.294
371.294
303.152
310.079
310.079
310.079
364.098
371.294
371.294
371.294
310.079
310.914
310.079
301.84
364.098
364.098
364.098
364.098
371.294
362.659
400.464
300.725
302.068
310.914
310.914
371.294
371.294
380.843
364.098
364.098
310.914
410.777
310.079
310.079
310.914
371.294
371.294
310.914
310.079
310.914
371.294
310.079
364.373
364.098
301.668
301.88
310.914
310.914
310.079
310.079
310.079
310.079
310.914
310.914
403.559
310.914
364.098
310.079
364.098
364.098
401.087
310.914
302.019
419.35
310.079
364.098
371.294
364.373
371.294
310.914
364.098
402.729
310.914
300.546
433.367
364.098
364.098
406.238
310.914
310.914
310.914
422.991
300.612
300.796
310.914
418.97
419.13
301.88
301.491
310.079
303.004
301.856
310.079
371.294
302.019
300.522
303.004
364.098
364.098
359.993
364.098
364.098
310.914
419.663
415.106
364.098
364.098
364.098
301.216
300.997
310.914
364.098
302.161
310.914
310.914
310.914
310.079
364.098
364.098
371.294
310.914
400.464
310.914
371.294
310.914
403.518
404.472
364.098
310.079
371.294
371.294
310.079
371.294
300.874
364.098
300.997
310.079
310.079
418.693
310.079
365.004
371.294
310.914
364.098
310.914
310.914
310.079
310.079
310.079
364.098
310.079
408.369
371.294
300.591
371.294
371.294
410.98
310.914
364.098
401.564
364.098
302.019
371.294
364.098
310.079
310.914
310.914
371.294
369.446
300.522
371.552
364.098
310.079
371.294
364.098
371.294
364.098
371.294
364.098
363.563
300.89
310.079
364.098
371.294
310.914
310.914
371.294
364.098
310.079
300.851
310.079
364.098
364.098
310.914
371.294
364.098
371.294
300.606
310.914
310.914
301.233
310.079
303.455
310.079
310.914
364.098
421.166
407.504
402.85
371.294
364.098
310.079
364.098
310.079
300.851
364.098
310.914
310.079
371.294
371.294
300.883
364.098
364.098
310.079
364.098
403.929
364.098
364.098
371.294
364.098
371.294
364.098
364.098
310.079
371.294
371.294
364.098
371.294
310.079
300.904
310.079
310.079
364.098
371.294
310.914
364.098
364.098
422.867
302.252
310.914
364.098
371.294
310.079
310.914
371.294
364.098
371.294
371.294
364.098
310.914
364.098
371.294
310.079
302.701
364.098
371.294
310.914
310.914
361.663
371.294
366.503
364.098
419.8
310.914
310.079
310.079
310.079
310.079
364.098
310.914
310.914
310.079
364.098
371.294
361.663
371.294
310.079
310.914
301.849
302.078
364.098
364.098
364.098
310.914