<?xml version="1.0"?>
<VTKFile type="PolyData" version="0.1" byte_order="LittleEndian">
  <PolyData>
    <Piece NumberOfPoints="50000" NumberOfVerts="50000" NumberOfLines="0" NumberOfStrips="0" NumberOfPolys="0">
      <Points>
        <DataArray type="Float32" NumberOfComponents="3" format="ascii">
0.273587 0.00594627 0
-0.259456 0.00214801 0
0.264996 -0.00168655 0
0.276757 -0.00133806 0
-0.225648 0.00447358 0
-0.189524 0.00166117 0
0.0910051 -0.0175363 0
-0.233305 0.000166579 0
0.0803507 -0.0136402 0
-0.0182168 0.00630699 0
0.207809 -0.00849341 0
0.264083 0.00543146 0
-0.151913 0.00499811 0
-0.107712 -0.0165122 0
-0.28342 0.00173932 0
0.214229 0.00848849 0
-0.0394252 -0.00128539 0
0.274461 0.00123274 0
0.104106 0.0011209 0
-0.259764 0.00272184 0
-0.27222 0.00395957 0
0.237783 0.00473158 0
-0.268623 0.00193078 0
0.267672 0.000100899 0
0.170455 -0.00855228 0
0.199246 0.00896457 0
-0.266277 -0.0049753 0
0.274895 -0.00221024 0
-0.190519 0.0162478 0
-0.280474 0.00640176 0
-0.21099 0.00844531 0
-0.196028 -0.011103 0
0.272307 0.000661545 0
0.274028 -0.000606758 0
0.0522648 0.00366722 0
0.278674 -0.00100941 0
0.0846638 0.00117301 0
-0.278192 0.00192435 0
-0.260164 -0.00339348 0
-0.289215 -0.00152109 0
0.200839 0.00912856 0
0.212352 0.00434637 0
-0.265726 -0.00141408 0
0.270582 0.000597719 0
0.280274 0.00101476 0
-0.273568 0.00617476 0
0.266641 0.00350722 0
0.136654 -0.0100766 0
0.263182 0.000351177 0
0.269459 0.00023942 0
0.112903 0.0148652 0
-0.268255 -0.000506225 0
-0.186347 0.00665896 0
0.265982 0.00212892 0
-0.264059 0.00189765 0
-0.281437 0.00200217 0
0.273892 -0.000742745 0
0.110551 0.00811375 0
0.204731 0.0053305 0
0.282749 -0.00321444 0
0.230791 0.0034222 0
0.276833 0.00195713 0
0.0610398 -0.0217892 0
0.282673 -0.00106671 0
-0.0907786 0.0117693 0
-0.263285 0.00122718 0
0.268677 -0.000473704 0
0.275956 -0.000290996 0
0.285407 0.00291809 0
0.197624 0.000833178 0
-0.266327 0.00248973 0
0.268368 0.00272398 0
0.146776 0.00102591 0
0.149781 0.00484738 0
0.127786 0.00370695 0
-0.270319 -0.00145371 0
0.234406 0.00870543 0
-0.256543 0.00322412 0
0.206817 0.00487568 0
-0.280818 0.00138978 0
-0.141237 -0.0227351 0
-0.275146 0.0032786 0
0.253755 0.00366808 0
-0.267497 0.000721775 0
0.282401 -0.00305975 0
-0.268108 0.00254882 0
0.282864 -0.00299683 0
-0.120473 -0.00554979 0
-0.116522 0.0158851 0
-0.270525 -0.00457731 0
0.265987 0.00473444 0
-0.264605 -0.00014325 0
0.267178 -0.00103389 0
-0.182165 0.0135595 0
-0.027304 -0.0145687 0
-0.237942 0.00386282 0
0.266818 0.00613045 0
-0.272728 0.00250325 0
-0.287718 0.005278 0
-0.285257 -0.000405118 0
-0.239066 -0.00484731 0
-0.265608 -0.00355302 0
0.28467 -0.000227429 0
-0.114788 -0.0137227 0
0.286684 -0.000138321 0
0.234555 0.00882376 0
0.172928 0.00479415 0
0.0139317 0.00558148 0
0.263421 0.00329305 0
-0.269192 -0.00286405 0
-0.202736 0.0135994 0
-0.273032 0.00244073 0
-0.232883 0.00742413 0
197.744 286.048 0
0.179729 0.00522468 0
-0.269053 0.00271374 0
-0.279023 0.00328894 0
5.07327 6.93998 0
-0.271102 0.00140607 0
-0.0135723 -0.00560539 0
0.274999 -0.00072918 0
-0.261545 -0.00229034 0
0.18563 -0.00211358 0
-0.24991 0.00530259 0
0.26987 -0.000231571 0
0.262331 -0.00040542 0
0.0862058 0.0164225 0
0.277137 0.00322928 0
-0.242246 -0.00437933 0
0.209207 -0.000372453 0
0.278833 -0.0019076 0
0.276568 -4.21499e-05 0
-0.286499 0.000794818 0
-0.238968 0.00301965 0
0.283308 -0.000978086 0
0.269289 -0.000454727 0
0.259604 -0.00165343 0
-0.0429706 0.0023854 0
0.216969 -0.00932095 0
0.211129 -0.00779345 0
0.216878 -0.00947653 0
0.257363 0.00675808 0
0.278287 -0.00205053 0
-0.0643395 -0.00917335 0
-0.277794 0.00482999 0
0.18464 -0.0149494 0
-0.177718 0.0138094 0
-0.274018 0.00162594 0
-0.195667 -0.0131592 0
-0.274895 0.00276912 0
0.209929 0.00525251 0
0.267493 0.00178998 0
-0.0833123 -0.00771521 0
0.217722 -0.00671492 0
0.21649 0.0059108 0
0.265294 0.0028906 0
0.181581 -0.00630118 0
-0.269412 0.00215339 0
-0.116127 -0.00378028 0
0.27751 -1.27852e-05 0
0.185411 -0.000865997 0
-0.244523 -0.0017573 0
-0.264702 0.00197346 0
-0.275234 0.00201674 0
-0.0710433 0.00700905 0
0.213707 -0.00403195 0
0.24155 -0.00353862 0
0.244622 0.00273603 0
0.204755 0.00561979 0
-0.11298 0.000645794 0
0.285785 -0.00307586 0
-0.263841 0.00236809 0
-0.0625006 -0.0037357 0
0.276289 0.00318922 0
-0.0502232 -0.0020849 0
-0.212894 0.0108841 0
-0.264556 0.00194547 0
-0.160768 -0.00720735 0
-0.268244 -0.00132554 0
-0.269436 -0.0042147 0
0.264831 0.000175846 0
-0.272497 0.00459708 0
-0.268347 0.00391822 0
0.273458 0.00386392 0
0.26671 -0.000385569 0
0.20611 -0.0114661 0
0.286394 -0.00208258 0
0.283317 0.000527861 0
0.274787 -0.00226745 0
0.0307642 0.0202075 0
0.279456 -0.00224594 0
0.226243 -0.00593879 0
-0.181621 -0.0121699 0
0.251782 0.00458327 0
-0.249241 0.00456032 0
0.264802 0.00141762 0
-0.222018 0.0081921 0
-0.236669 0.00383811 0
-0.265596 0.00286101 0
0.268176 0.00359275 0
-0.177302 0.0130695 0
0.282554 0.00207123 0
0.245121 -0.00346965 0
-0.0556687 -0.00455795 0
0.286235 -0.00314473 0
-0.261894 -0.0051915 0
0.0372194 0.0325088 0
0.113549 -0.00426764 0
-0.236967 0.00749447 0
-0.166881 -0.00664428 0
0.262202 0.000626439 0
-0.116324 -0.0139575 0
0.24701 -0.00224998 0
-0.229012 0.00770802 0
-0.156871 -0.0104642 0
-0.275163 0.004352 0
-0.271493 0.00545838 0
0.271775 3.54318e-05 0
-0.278966 -0.000717598 0
-0.0326614 0.0144574 0
-0.214542 0.0081893 0
-0.278468 0.00269689 0
-0.25842 -0.00409927 0
0.283854 -0.00176985 0
0.10047 0.0169465 0
-0.264723 0.00229522 0
0.285277 0.000998265 0
0.273799 -0.00033544 0
-0.235161 0.00685541 0
-0.277467 -0.000183263 0
-0.273068 -0.00238328 0
0.266406 0.00312248 0
0.138707 0.0162227 0
-0.0420002 0.0103958 0
-0.282546 0.0032341 0
-0.243174 0.00423016 0
0.209298 -0.0116488 0
-0.213977 -0.00280172 0
-0.269964 0.00248926 0
0.165907 -0.00175653 0
0.280053 0.000201537 0
-0.247973 -0.00439569 0
-0.27313 0.002512 0
-0.157761 -0.00927335 0
0.136825 0.00486415 0
0.244513 0.0030623 0
-0.257751 0.0050039 0
0.274018 -0.00033427 0
0.281994 0.00203107 0
0.161715 0.00873633 0
0.168732 0.0031964 0
-0.256738 0.00366096 0
0.264663 -0.00176773 0
-0.121352 -0.0061452 0
-0.248326 0.00574883 0
0.265105 3.56027e-05 0
-0.240688 0.00561222 0
0.234511 0.00632389 0
0.101683 0.0160866 0
0.146829 0.000422189 0
0.281899 0.0008482 0
-0.256644 0.00354376 0
0.0516158 -0.00536253 0
0.0259138 -0.00923754 0
-0.183003 0.00254794 0
-0.269681 0.000939178 0
-0.265504 0.00220751 0
-0.263747 -0.000734312 0
0.271601 -0.000468975 0
0.269444 -0.000320625 0
0.277568 -0.000420982 0
-0.272127 -0.00173288 0
0.1781 0.00231298 0
0.0147672 0.00861983 0
-0.28412 0.00363608 0
-0.276228 0.0017762 0
0.263774 -4.10095e-05 0
-0.264019 0.00226497 0
0.261775 0.00463951 0
-0.267932 -0.000771052 0
-0.25969 0.000125273 0
-0.120016 -0.0152963 0
-0.272162 0.0018904 0
0.257502 -0.00126116 0
-0.231155 0.00749699 0
-0.260419 -0.00195848 0
-0.103196 0.0136985 0
-0.2714 0.00243541 0
-0.27562 0.00280081 0
0.232272 -0.00187346 0
-0.096624 0.00482418 0
0.271211 -0.000412981 0
0.277149 -0.00174756 0
0.176625 0.00964078 0
0.281426 0.00247285 0
0.267336 0.00443889 0
0.280324 0.00308607 0
-0.186259 0.0160087 0
-0.254901 0.0016132 0
-0.283309 0.000853639 0
0.28752 0.000843057 0
-0.0381604 0.0052263 0
0.270282 -0.000973004 0
0.263855 0.00246087 0
0.278294 -0.000284274 0
0.0477908 0.00848351 0
-0.142731 0.0171533 0
0.234285 0.00386632 0
-0.0325787 0.000496656 0
-0.132979 0.00655453 0
-0.222737 0.00804516 0
0.271191 0.0047424 0
-0.197152 0.0100683 0
0.250866 -0.00341259 0
0.20678 -0.00299027 0
-0.282467 0.00447659 0
0.220465 -0.0097314 0
0.284621 -0.00329966 0
0.254485 -0.0018207 0
0.272073 0.00524983 0
-0.27557 0.00386295 0
-0.0602374 0.01041 0
0.27747 0.00163032 0
0.276248 -0.00041563 0
0.127409 0.0169929 0
-0.263016 -8.15886e-05 0
-0.257911 0.00363768 0
0.284356 0.000560072 0
-0.263577 -0.0018196 0
0.274378 0.00191612 0
0.276268 -0.00142651 0
0.132238 -0.0156142 0
0.26455 0.00260647 0
-0.27063 0.00247432 0
-0.231401 -0.00018359 0
-0.155338 -0.00148439 0
0.0220433 -0.00500197 0
0.0330768 -0.0195869 0
-0.248231 0.00251297 0
0.123012 -0.017363 0
-0.0286943 0.027607 0
-0.279488 0.00435061 0
-0.199535 0.00945488 0
-0.272797 0.00324646 0
-0.112825 -0.00895039 0
0.276177 0.00488812 0
-0.193727 0.0105913 0
-0.2762 0.000195704 0
-42.9393 177.608 0
0.275527 -0.00332296 0
0.274737 -0.000520447 0
-0.22485 0.00981168 0
0.267207 0.00224513 0
0.253436 -0.000451375 0
-386.602 -691.376 0
0.0842955 0.0101334 0
-0.273345 0.00275553 0
-0.227091 -0.00143108 0
0.272727 0.00262811 0
2.75155 -5.66757 0
0.258108 0.00361213 0
-0.267563 -0.00383578 0
-0.170624 0.000418193 0
-0.271728 -0.00198524 0
-0.276976 0.00480092 0
0.270723 -0.000448657 0
-0.281154 -0.000723953 0
-0.243725 0.00644669 0
0.212363 0.00873853 0
-0.264974 0.000287516 0
-0.220721 0.00982196 0
-0.244963 0.00579907 0
0.273482 0.00309342 0
0.246616 -0.00448097 0
-0.162957 0.0131239 0
0.281251 -0.00116478 0
-0.273506 -0.00358107 0
-0.254195 -0.00220791 0
-0.276435 0.00110317 0
0.0240871 -0.0207743 0
-0.26617 -0.00337446 0
0.269916 0.00312879 0
-0.271145 0.00274277 0
-0.26979 0.00159579 0
-0.0662604 0.0104746 0
0.176628 0.00951214 0
-0.0879141 0.0248835 0
0.0582351 0.0142041 0
-0.273676 0.00289926 0
-0.0492727 0.00270324 0
-0.274217 -0.000405105 0
-0.275589 0.00397059 0
0.263745 -0.0036957 0
0.2322 0.00662641 0
-0.257713 0.0045973 0
0.245215 0.00355908 0
0.243406 0.00117231 0
-0.262926 0.0023276 0
-0.144965 -0.00453355 0
0.192506 -0.011402 0
-0.263334 0.000819659 0
0.233185 -0.00577111 0
0.106903 -0.00298963 0
-0.2705 -0.000412158 0
0.253334 -0.000157338 0
0.26649 -0.00131499 0
0.270746 -0.00293163 0
0.275786 -0.000793132 0
0.280415 0.000283467 0
0.265906 0.00493338 0
-0.272376 0.00213514 0
0.196058 0.00680713 0
-0.224858 -0.00314894 0
0.128731 0.0183349 0
-0.256419 0.00210891 0
-0.0913993 -0.00351271 0
-0.212509 0.00822088 0
0.0778743 -0.00921362 0
-0.278029 0.00290809 0
0.266168 -0.000459832 0
-0.07467 0.0202574 0
0.0953413 0.0107998 0
-0.281757 0.00255235 0
0.26816 0.00154233 0
0.276321 -0.000196104 0
0.263792 0.00610167 0
[...]
      <PointData Scalars="T">
        <DataArray type="Float32" Name="T" format="ascii" NumberOfComponents="1">
311.595
391.566
311.488
311.488
391.566
506.315
311.488
549.129
311.488
391.566
311.488
311.595
391.566
402.83
515.937
311.595
402.83
301.569
301.319
391.566
391.566
311.595
391.566
307.198
311.488
311.595
402.83
311.488
391.566
391.566
391.566
402.83
301.33
311.488
311.595
311.488
301.356
391.566
402.83
402.83
311.595
311.595
402.83
301.762
300.854
391.566
311.595
311.488
304.389
305.661
311.595
402.83
391.566
311.595
490.353
391.566
311.488
311.595
311.595
311.488
311.595
311.595
311.488
311.488
391.566
556.338
311.488
311.488
311.595
301.005
391.566
311.595
300.758
311.595
311.595
402.83
311.595
391.566
311.595
516.437
402.83
391.566
311.595
511.71
311.488
391.566
311.488
402.83
391.566
402.83
311.595
402.83
311.488
391.566
402.83
391.566
311.595
391.566
391.566
402.83
402.83
402.83
311.488
402.83
311.488
311.595
311.595
311.595
311.595
402.83
391.566
391.566
391.566
311.595
311.595
391.566
391.566
311.595
519.408
402.83
311.488
402.83
311.488
391.566
311.488
311.488
311.595
311.595
402.83
311.488
311.488
311.488
558.591
391.566
311.488
311.488
311.488
391.566
311.488
311.488
311.488
311.595
311.488
402.83
391.566
311.488
391.566
506.923
402.83
391.566
311.595
308.391
402.83
311.488
311.595
311.595
311.488
391.566
402.83
311.488
311.488
402.83
391.566
391.566
391.566
311.488
311.488
311.595
311.595
514.962
311.488
391.566
402.83
311.595
402.83
391.566
391.566
402.83
402.83
402.83
306.962
391.566
391.566
311.595
311.488
311.488
311.488
302.387
311.488
311.595
311.488
311.488
402.83
311.595
391.566
302.342
391.566
391.566
391.566
311.595
391.566
311.595
311.488
402.83
311.488
402.83
311.595
311.488
391.566
402.83
301.587
402.83
311.488
391.566
402.83
391.566
391.566
306.467
402.83
391.566
391.566
391.566
402.83
311.488
311.595
391.566
300.773
311.488
391.566
402.83
402.83
311.595
311.595
391.566
391.566
391.566
311.488
402.83
391.566
311.488
306.372
402.83
391.566
402.83
311.595
311.595
391.566
311.488
311.595
311.595
311.595
391.566
311.488
402.83
391.566
306.467
391.566
311.595
311.595
303.102
300.916
391.566
311.488
311.488
391.566
529.434
391.566
402.83
311.488
311.488
311.488
402.83
311.595
311.595
391.566
519.561
311.488
391.566
311.595
402.83
544.15
402.83
490.353
311.488
391.566
402.83
391.566
391.566
391.566
311.488
391.566
311.488
311.488
311.595
311.595
311.595
311.595
391.566
507.594
530.975
300.916
391.566
311.488
311.595
311.488
311.595
391.566
311.595
501.308
391.566
391.566
311.595
391.566
311.488
311.488
391.566
311.488
311.488
311.488
311.595
391.566
391.566
305.538
311.488
311.595
402.83
391.566
301.939
402.83
311.595
311.488
311.488
311.595
391.566
402.83
402.83
311.488
311.488
391.566
311.488
391.566
391.566
391.566
391.566
402.83
311.595
391.566
555.718
391.566
311.488
311.488
391.566
311.595
311.488
402.83
311.595
391.566
402.83
311.595
311.488
311.595
402.83
513.704
402.83
391.566
311.488
402.83
391.566
311.595
533.956
391.566
391.566
311.595
311.488
391.566
311.488
402.83
402.83
551.58
311.488
402.83
311.595
391.566
506.712
391.566
311.595
391.566
311.595
391.566
391.566
402.83
391.566
311.488
311.595
391.566
311.595
301.356
391.566
402.83
311.488
538.39
311.488
311.488
402.83
311.488
311.488
311.488
311.488
304.765
311.595
391.566
311.595
402.83
311.595
391.566
402.83
391.566
311.488
391.566
311.488
391.566
311.595
391.566
304.097
311.488
311.595
311.488
391.566
391.566
311.488
391.566
311.595
391.566
311.595
542.981
402.83
391.566
391.566
311.595
301.503
391.566
311.488
500.788
402.83
402.83
391.566
402.83
311.595
311.488
402.83
309.845
402.83
402.83
311.488
311.488
402.83
391.566
513.464
402.83
301.137
402.83
302.761
391.566
402.83
311.488
311.595
402.83
402.83
391.566
391.566
311.595
513.04
311.488
311.488
311.595
391.566
391.566
391.566
307.193
311.595
520.522
402.83
402.83
391.566
301.358
311.595
311.488
300.775
391.566
311.595
311.595
300.765
391.566
311.595
311.488
402.83
311.488
391.566
391.566
391.566
402.83
402.83
402.83
402.83
402.83
311.488
311.488
311.488
311.595
311.488
311.595
311.595
402.83
311.595
391.566
311.488
311.595
391.566
311.595
391.566
519.408
391.566
517.572
311.595
311.488
311.595
311.488
311.488
311.488
391.566
311.595
311.595
499.288
311.595
506.603
391.566
402.83
311.488
311.488
391.566
391.566
402.83
402.83
402.83
311.595
311.595
305.029
311.595
402.83
391.566
311.595
391.566
301.527
311.595
402.83
391.566
311.488
391.566
311.595
311.595
402.83
311.595
402.83
311.488
543.924
391.566
301.355
311.488
402.83
402.83
530.843
391.566
391.566
311.595
311.488
311.488
301.005
311.595
402.83
515.815
402.83
402.83
391.566
311.595
311.488
391.566
311.595
402.83
300.765
311.595
302.979
391.566
311.595
402.83
551.696
311.595
311.488
402.83
311.595
391.566
311.488
311.488
311.595
311.488
402.83
402.83
391.566
578.772
311.595
402.83
311.488
402.83
402.83
311.595
311.488
402.83
402.83
391.566
391.566
311.488
311.488
391.566
544.109
402.83
311.595
311.488
391.566
391.566
311.488
311.488
311.595
311.595
391.566
402.83
402.83
402.83
402.83
311.595
391.566
311.595
311.595
402.83
391.566
311.488
311.488
402.83
391.566
311.488
402.83
402.83
391.566
311.488
402.83
498.544
311.595
391.566
391.566
311.488
311.595
391.566
311.595
311.488
506.315
311.595
311.488
391.566
391.566
311.488
311.488
311.488
311.595
311.595
549.77
402.83
391.566
391.566
311.595
391.566
402.83
301.286
311.595
391.566
503.492
391.566
311.488
311.595
311.595
311.595
391.566
311.488
311.488
537.216
391.566
311.595
311.488
311.595
311.595
309.845
391.566
311.595
311.595
311.488
391.566
311.595
391.566
311.488
311.595
311.488
311.595
311.488
391.566
304.896
532.62
311.595
391.566
391.566
391.566
311.488
402.83
311.595
391.566
311.488
311.595
402.83
311.488
526.346
402.83
555.718
499.977
391.566
391.566
311.488
311.488
311.488
311.488
311.488
509.912
311.595
391.566
546.76
311.488
311.488
391.566
301.137
391.566
311.595
391.566
391.566
391.566
402.83
402.83
301.286
391.566
311.595
391.566
402.83
391.566
402.83
402.83
306.502
311.595
311.488
391.566
402.83
391.566
506.923
402.83
391.566
402.83
311.595
391.566
402.83
311.488
311.488
311.488
518.987
391.566
402.83
311.595
402.83
301.358
391.566
402.83
402.83
311.595
311.488
311.595
302.229
311.488
391.566
391.566
311.488
391.566
311.595
518.399
311.595
391.566
402.83
311.595
391.566
301.974
391.566
391.566
311.488
301.355
402.83
311.595
311.488
301.745
311.595
391.566
402.83
546.76
311.595
391.566
302.05
311.595
311.488
311.488
402.83
391.566
302.611
391.566
391.566
311.488
311.488
311.595
311.488
391.566
402.83
311.595
391.566
308.964
311.595
391.566
391.566
311.595
554.48
311.488
311.488
391.566
391.566
311.488
301.259
391.566
402.83
402.83
311.595
301.928
514.756
391.566
391.566
514.78
402.83
311.488
391.566
311.488
517.544
311.488
311.488
516.198
311.488
503.492
311.595
311.488
391.566
402.83
311.595
311.488
311.595
311.595
311.595
311.595
391.566
311.595
311.488
544.109
311.488
311.595
391.566
306.876
311.488
311.595
391.566
391.566
402.83
311.488
402.83
311.488
402.83
391.566
391.566
311.595
402.83
547.643
402.83
311.488
543.986
391.566
311.488
311.595
402.83
402.83
311.488
391.566
311.488
311.488
402.83
311.595
402.83
307.814
311.488
311.595
311.488
311.595
311.595
391.566
308.079
311.488
311.488
391.566
311.488
402.83
391.566
402.83
311.488
311.595
391.566
402.83
391.566
311.488
391.566
391.566
306.817
311.488
311.595
311.595
391.566
499.977
311.488
391.566
311.595
391.566
402.83
302.105
402.83
311.488
391.566
402.83
391.566
391.566
391.566
516.769
402.83
391.566
391.566
311.595
529.713
311.488
311.488
311.488
311.488
311.595
391.566
311.488
391.566
311.595
391.566
311.595
306.141
402.83
311.595
391.566
311.488
311.595
311.488
402.83
311.488
391.566
301.125
402.83
402.83
311.595
402.83
391.566
391.566
402.83
311.488
311.595
311.595
311.595
402.83
311.488
402.83
311.488
302.365
311.595
311.595
311.595
311.488
311.488
402.83
311.595
311.595
402.83
391.566
311.488
391.566
300.758
391.566
402.83
391.566
509.973
402.83
391.566
311.595
402.83
311.595
517.544
311.488
391.566
311.595
391.566
391.566
311.595
311.595
391.566
311.488
311.595
306.023
301.527
402.83
391.566
540.753
560.44
311.488
391.566
303.415
391.566
391.566
311.488
311.488
391.566
311.595
311.488
305.471
311.488
391.566
306.962
311.595
391.566
391.566
391.566
402.83
391.566
311.488
391.566
311.488
402.83
303.844
311.488
311.595
391.566
402.83
402.83
391.566
311.488
311.595
402.83
311.488
301.203
402.83
402.83
311.488
391.566
301.572
311.488
311.595
402.83
391.566
391.566
391.566
311.595
551.285
311.595
508.811
391.566
311.488
311.595
311.595
311.488
311.595
542.493
534.927
402.83
391.566
311.488
311.595
311.595
311.595
311.595
311.595
402.83
391.566
391.566
391.566
402.83
391.566
391.566
303.577
311.488
311.488
311.488
311.488
391.566
311.488
391.566
301.33
402.83
391.566
311.595
492.552
553.773
311.488
559.535
311.488
311.488
311.488
311.488
311.595
311.595
311.488
311.595
402.83
300.838
506.923
311.595
311.595
306.959
402.83
311.488
402.83
311.595
311.595
311.595
311.595
391.566
311.488
391.566
311.595
306.959
311.488
547.521
547.163
548.191
311.488
311.488
402.83
311.595
391.566
311.595
311.488
402.83
391.566
529.434
311.488
311.595
391.566
311.488
391.566
311.595
391.566
391.566
500.728
391.566
311.488
311.488
402.83
391.566
391.566
391.566
311.488
402.83
311.595
391.566
311.595
311.595
391.566
391.566
311.595
391.566
311.488
311.488
311.488
391.566
301.656
311.488
402.83
391.566
311.488
391.566
311.488
391.566
391.566
311.488
402.83
402.83
307.193
307.008
311.595
311.488
311.595
402.83
309.751
311.595
391.566
391.566
311.488
391.566
311.595
300.758
513.04
391.566
311.595
547.521
512.252
301.154
311.488
552.264
513.448
311.488
391.566
529.713
402.83
402.83
391.566
311.488
311.488
391.566
391.566
311.488
402.83
311.488
311.595
311.595
391.566
391.566
311.488
509.666
311.595
391.566
311.595
311.488
506.712
311.488
311.488
402.83
391.566
402.83
402.83
391.566
391.566
391.566
391.566
311.595
306.502
311.488
391.566
311.488
391.566
391.566
311.488
391.566
391.566
311.595
391.566
402.83
311.488
402.83
402.83
311.595
391.566
311.595
308.079
311.488
311.488
391.566
311.595
301.949
391.566
391.566
311.595
391.566
391.566
302.761
311.488
311.488
402.83
311.488
391.566
302.191
311.488
541.341
391.566
391.566
311.488
306.643
391.566
391.566
391.566
402.83
307.814
402.83
311.488
402.83
402.83
305.661
311.595
311.488
402.83
311.595
311.488
311.595
517.081
311.488
537.216
546.76
391.566
391.566
513.598
402.83
402.83
311.595
311.595
402.83
391.566
391.566
311.488
391.566
391.566
391.566
402.83
402.83
311.488
311.488
311.595
391.566
311.595
311.595
311.488
402.83
311.488
303.532
311.595
301.198
311.595
391.566
530.843
543.924
391.566
512.67
311.488
402.83
402.83
311.595
391.566
402.83
391.566
510.954
391.566
391.566
555.485
311.488
402.83
402.83
391.566
402.83
391.566
311.488
402.83
391.566
311.488
311.488
311.488
402.83
402.83
391.566
311.595
391.566
402.83
302.702
391.566
391.566
391.566
311.595
391.566
311.595
311.595
311.488
402.83
311.488
301.905
402.83
544.402
311.488
311.595
402.83
391.566
391.566
311.488
391.566
402.83
391.566
311.595
311.595
311.488
311.595
402.83
391.566
391.566
311.488
311.595
391.566
311.595
311.595
541.687
402.83
402.83
311.595
311.595
311.595
391.566
311.595
541.601
311.595
391.566
391.566
506.712
311.595
311.488
311.488
311.488
402.83
311.488
311.488
517.081
391.566
311.595
311.595
304.879
391.566
311.488
391.566
311.488
311.595
311.488
301.203
549.77
391.566
546.506
311.595
311.488
311.488
311.488
391.566
311.595
391.566
309.845
307.198
311.595
402.83
303.765
391.566
311.595
311.595
311.488
402.83
311.488
311.488
311.488
311.488
311.595
534.927
311.595
311.488
391.566
402.83
546.506
504.713
391.566
391.566
506.603
391.566
311.488
311.488
402.83
311.595
391.566
518.987
391.566
311.488
402.83
402.83
311.595
311.488
311.595
311.595
311.595
506.712
311.595
311.595
311.488
311.595
391.566
301.86
524.132
402.83
402.83
311.488
402.83
391.566
391.566
391.566
391.566
391.566
558.591
391.566
311.595
311.595
311.488
391.566
311.488
391.566
311.488
311.595
391.566
301.096
304.683
311.595
311.595
311.488
513.464
311.488
301.054
391.566
311.595
510.548
311.595
391.566
311.488
306.471
391.566
391.566
402.83
391.566
402.83
391.566
311.488
311.488
311.488
402.83
311.595
391.566
311.488
402.83
311.595
391.566
391.566
402.83
391.566
306.913
311.488
402.83
311.488
311.595
402.83
391.566
306.372
311.595
391.566
311.595
311.595
311.488
311.488
311.488
402.83
391.566
402.83
402.83
311.595
311.488
311.595
301.358
311.488
391.566
551.285
548.276
311.488
301.007
311.488
311.488
391.566
311.488
311.595
311.595
311.595
307.193
311.595
391.566
391.566
391.566
311.595
391.566
391.566
311.488
300.888
307.105
300.731
391.566
311.595
391.566
311.595
311.595
391.566
311.488
402.83
402.83
402.83
311.488
402.83
402.83
513.448
402.83
402.83
391.566
402.83
402.83
517.081
311.488
391.566
391.566
311.595
311.595
311.488
311.488
311.595
391.566
391.566
311.595
402.83
402.83
311.595
490.353
402.83
305.269
311.595
311.488
391.566
391.566
311.488
391.566
391.566
311.488
402.83
301.343
304.719
311.488
311.488
391.566
391.566
391.566
311.488
391.566
391.566
391.566
391.566
402.83
391.566
311.595
402.83
391.566
391.566
311.595
391.566
311.488
391.566
513.464
311.595
391.566
402.83
311.488
311.488
402.83
543.034
543.986
306.876
512.252
391.566
512.252
402.83
391.566
402.83
402.83
311.595
311.488
402.83
391.566
311.488
311.595
311.488
402.83
311.488
311.488
311.595
311.595
391.566
402.83
391.566
391.566
306.141
499.977
311.595
391.566
402.83
402.83
311.488
300.726
402.83
391.566
311.488
517.396
311.595
311.488
311.595
311.488
311.488
311.595
490.353
402.83
402.83
391.566
311.488
311.488
402.83
305.263
515.815
391.566
391.566
402.83
391.566
311.595
311.488
391.566
402.83
308.964
311.595
391.566
311.488
391.566
311.488
311.488
311.488
391.566
311.595
311.488
311.488
311.595
402.83
300.723
402.83
402.83
311.488
311.488
402.83
512.67
311.595
311.488
311.488
402.83
402.83
391.566
311.595
311.595
402.83
311.595
311.488
540.546
311.488
311.595
391.566
402.83
555.718
391.566
391.566
518.614
391.566
391.566
311.595
402.83
300.888
402.83
402.83
311.595
506.772
391.566
391.566
402.83
311.488
391.566
402.83
310.248
391.566
517.572
391.566
311.595
311.488
311.595
311.488
402.83
402.83
391.566
402.83
492.552
391.566
402.83
391.566
391.566
311.488
311.595
311.595
302.611
301.33
402.83
540.753
311.595
311.595
402.83
402.83
391.566
311.488
506.772
391.566
391.566
311.488
391.566
311.488
311.595
301.198
311.488
391.566
311.595
391.566
391.566
402.83
311.595
391.566
311.595
301.503
305.9
306.643
391.566
402.83
303.577
307.098
301.358
311.595
311.595
311.488
402.83
311.488
311.488
391.566
546.981
391.566
311.488
311.488
311.488
391.566
506.712
391.566
311.595
391.566
311.595
499.288
303.756
311.488
311.488
311.488
391.566
311.595
402.83
303.334
306.502
311.595
391.566
402.83
402.83
391.566
402.83
402.83
304.699
391.566
546.76
311.488
311.488
308.727
391.566
391.566
402.83
402.83
311.595
391.566
402.83
402.83
311.595
391.566
544.402
311.488
391.566
311.595
402.83
311.488
391.566
402.83
311.595
391.566
311.488
402.83
391.566
311.488
311.595
402.83
391.566
391.566
311.488
391.566
402.83
311.488
549.129
311.595
311.595
543.924
311.595
311.488
311.488
311.488
302.05
402.83
311.488
311.595
534.251
311.595
391.566
402.83
402.83
391.566
402.83
311.488
402.83
311.595
311.595
311.595
311.488
311.595
311.488
311.488
311.595
402.83
311.595
311.595
402.83
311.488
311.488
311.595
300.916
402.83
311.488
311.488
402.83
311.595
402.83
402.83
311.488
391.566
391.566
311.488
391.566
309.81
302.05
311.595
311.488
311.488
311.488
311.488
311.488
301.125
391.566
402.83
551.696
311.595
303.415
391.566
311.488
311.488
546.76
311.488
311.595
311.488
311.488
311.488
391.566
311.595
311.488
391.566
311.488
402.83
311.595
311.488
311.595
391.566
402.83
311.595
391.566
391.566
311.488
311.488
311.488
391.566
311.595
300.92
539.304
391.566
311.488
311.488
311.595
402.83
402.83
402.83
311.488
311.595
311.488
402.83
391.566
311.488
303.204
311.595
311.595
311.488
391.566
311.595
402.83
311.595
391.566
391.566
309.81
311.595
391.566
502.587
311.595
402.83
535.72
518.301
542.961
391.566
391.566
402.83
311.488
311.488
402.83
311.595
402.83
311.595
311.488
402.83
311.488
311.488
391.566
311.488
520.802
501.308
391.566
391.566
311.595
311.595
311.488
402.83
311.488
402.83
311.488
311.488
391.566
402.83
391.566
302.867
301.905
311.595
305.471
402.83
311.488
391.566
311.488
391.566
311.488
391.566
391.566
311.595
311.488
402.83
306.502
391.566
311.595
391.566
402.83
402.83
402.83
311.488
391.566
402.83
500.728
402.83
402.83
311.488
391.566
311.488
311.488
311.595
311.488
311.595
311.488
391.566
402.83
500.788
311.595
311.595
391.566
311.488
307.198
311.488
311.488
391.566
391.566
311.595
311.595
311.488
311.488
538.39
300.854
402.83
391.566
391.566
311.488
391.566
301.203
402.83
311.488
391.566
402.83
311.595
391.566
311.595
311.488
311.595
549.402
402.83
304.262
311.488
311.488
311.488
311.595
402.83
311.595
305.263
391.566
311.488
311.595
311.488
402.83
311.595
311.595
402.83
506.923
500.728
304.096
311.488
498.544
391.566
553.773
402.83
311.488
311.488
391.566
402.83
311.488
402.83
391.566
391.566
311.488
311.595
402.83
548.191
402.83
311.488
402.83
402.83
311.595
311.595
311.595
311.595
391.566
402.83
402.83
402.83
311.595
311.488
311.595
311.488
391.566
391.566
391.566
391.566
402.83
391.566
499.977
302.055
308.964
311.488
311.488
402.83
402.83
391.566
391.566
391.566
311.488
511.71
311.595
311.595
311.488
402.83
402.83
311.488
311.595
311.488
402.83
311.595
391.566
391.566
311.488
311.488
311.488
311.488
311.595
311.595
311.595
311.595
311.488
311.488
515.937
311.488
391.566
311.595
391.566
391.566
506.712
311.488
311.488
551.755
311.595
391.566
402.83
391.566
402.83
311.488
391.566
516.198
311.488
300.85
402.83
391.566
391.566
518.301
311.488
311.488
311.488
402.83
301.096
302.979
311.488
549.497
548.276
311.488
307.398
311.595
311.595
311.488
311.595
402.83
311.488
300.731
311.595
391.566
391.566
391.566
391.566
391.566
311.488
549.129
540.546
391.566
391.566
391.566
305.772
304.667
311.488
391.566
311.488
311.488
311.488
311.488
311.595
391.566
391.566
402.83
311.488
499.977
311.488
402.83
311.488
514.78
500.728
391.566
311.595
402.83
402.83
311.595
402.83
302.342
391.566
304.667
311.595
311.595
546.981
311.595
391.566
402.83
311.488
391.566
311.488
311.488
311.595
311.595
311.595
391.566
311.595
531.505
402.83
301.143
402.83
402.83
526.346
311.488
391.566
511.916
391.566
311.488
402.83
391.566
311.595
311.488
311.488
402.83
391.566
300.735
391.566
391.566
311.595
402.83
391.566
402.83
391.566
402.83
391.566
391.566
302.105
311.595
391.566
402.83
311.488
311.488
402.83
391.566
311.595
303.204
311.595
391.566
391.566
311.488
402.83
391.566
402.83
301.33
311.488
311.488
305.9
311.595
311.595
311.595
311.488
391.566
402.83
518.301
513.464
402.83
391.566
311.595
391.566
311.595
303.415
391.566
311.488
311.595
402.83
402.83
301.905
391.566
391.566
311.595
391.566
518.987
391.566
391.566
402.83
391.566
402.83
391.566
391.566
311.595
402.83
402.83
391.566
402.83
311.595
303.098
311.595
311.595
391.566
402.83
311.488
391.566
391.566
402.83
311.488
311.488
391.566
402.83
311.595
311.488
402.83
391.566
402.83
402.83
391.566
311.488
391.566
402.83
311.595
311.595
391.566
402.83
311.488
311.488
391.566
402.83
391.566
391.566
551.58
311.488
311.595
311.595
311.595
311.595
391.566
311.488
311.488
311.595
391.566
402.83
391.566
402.83
311.595
311.488
311.488
311.488
391.566
391.566
391.566
311.488
391.566
301.019
402.83
311.488
391.566
311.595
311.488
391.566
555.364
512.67
311.488
391.566
391.566
402.83
311.488
391.566
311.488
391.566
544.15
311.595
311.488
402.83
391.566
311.488
311.595
311.595
309.751
311.488
391.566
311.595
311.488
391.566
391.566
311.488
311.488
391.566
391.566
514.747
311.488
311.488
391.566
311.488
311.595
391.566
311.595
301.355
541.601
402.83
391.566