<?xml version="1.0"?>
<VTKFile type="PolyData" version="0.1" byte_order="LittleEndian">
  <PolyData>
    <Piece NumberOfPoints="15000" NumberOfVerts="15000" NumberOfLines="0" NumberOfStrips="0" NumberOfPolys="0">
      <Points>
        <DataArray type="Float32" NumberOfComponents="3" format="ascii">
0.173365 0.00419868 0
-0.171348 0.00143409 0
0.169629 -0.000328763 0
0.173842 -0.000350229 0
-0.154133 0.00319649 0
-0.103857 0.00150399 0
0.0452682 -0.00829322 0
-0.148002 0.000329736 0
0.0469954 -0.00858678 0
-0.0195168 0.00395244 0
0.134413 -0.00549811 0
0.167347 0.00387998 0
-0.124959 0.00418688 0
-0.0751315 -0.011585 0
-0.179763 0.00159473 0
0.14775 0.00601262 0
-0.035607 -0.00122534 0
0.177407 0.00113262 0
0.0994681 0.0015902 0
-0.166778 0.00183395 0
-0.178738 0.00278796 0
0.157159 0.00390202 0
-0.169322 0.00150476 0
0.169175 0.000392947 0
0.10946 -0.00567684 0
0.123374 0.00528621 0
-0.17639 -0.00295291 0
0.175533 -0.00107073 0
-0.130781 0.0107577 0
-0.17096 0.00362672 0
-0.143894 0.00566033 0
-0.136467 -0.00608714 0
0.172554 0.000935317 0
0.171887 7.13225e-05 0
0.0429349 0.00250173 0
0.175926 -0.000214956 0
0.0816142 0.00131958 0
-0.175111 0.00153573 0
-0.148823 -0.00145332 0
-0.17999 -0.000501769 0
0.122243 0.0052494 0
0.139023 0.00379933 0
-0.167224 -0.000655295 0
0.171606 0.000884585 0
0.178591 0.00102535 0
-0.153186 0.00321877 0
0.16975 0.00262546 0
0.0846923 -0.00644465 0
0.165672 0.000645218 0
0.170074 0.000469696 0
0.0681481 0.0093917 0
-0.168756 -5.50527e-05 0
-0.103884 0.00403483 0
0.168635 0.00166798 0
-0.165839 0.00117972 0
-0.178785 0.00188081 0
0.173491 6.5577e-05 0
0.0674986 0.00504726 0
0.140918 0.00424333 0
0.176574 -0.00171869 0
0.15363 0.00302964 0
0.17296 0.00131269 0
0.0349471 -0.0140253 0
0.177477 -0.000199752 0
-0.04646 0.00632666 0
-0.174054 0.00105537 0
0.168101 0.000157814 0
0.174348 6.45454e-05 0
0.179553 0.00219346 0
0.120574 0.00125341 0
-0.168682 0.00167556 0
0.169337 0.00173322 0
0.0711249 0.000426397 0
0.0890589 0.00346358 0
0.095016 0.00295517 0
-0.170258 -0.000572712 0
0.159422 0.0062532 0
-0.166217 0.0023376 0
0.16225 0.00446485 0
-0.176258 0.00135597 0
-0.0915019 -0.0146649 0
-0.173633 0.00217328 0
0.159502 0.0024021 0
-0.167987 0.000767289 0
0.177125 -0.00158311 0
-0.17119 0.00172551 0
0.179475 -0.00147248 0
-0.0852522 -0.00293146 0
-0.0713209 0.00957988 0
-0.164172 -0.00216034 0
0.168861 0.00339597 0
-0.166642 0.000249283 0
0.166229 -0.000196072 0
-0.110765 0.00858859 0
-0.0192818 -0.0109673 0
-0.153435 0.00253684 0
0.168221 0.0043877 0
-0.170564 0.0015633 0
-0.175888 0.00335739 0
-0.177926 0.00032138 0
-0.160016 -0.00243598 0
-0.168018 -0.00167635 0
0.178344 0.000316839 0
-0.0719544 -0.00811161 0
0.179524 0.000258576 0
0.12805 0.00547299 0
0.114063 0.00367308 0
2.80376 2.89475 0
0.161217 0.00274228 0
-0.170245 -0.00126956 0
-0.144715 0.00980442 0
-0.17274 0.0015662 0
-0.14874 0.00493474 0
4.81002 6.08805 0
0.136948 0.0040657 0
-0.169777 0.00169275 0
-0.173673 0.00217875 0
3.64779 6.93261 0
-0.170332 0.00126024 0
-0.0157641 -0.0102218 0
0.17481 1.08873e-05 0
-0.164803 -0.0010755 0
0.0987401 0.000148193 0
-0.156069 0.00347737 0
0.170762 0.00038702 0
0.164325 0.000186827 0
0.0437926 0.00836797 0
0.181028 0.00253813 0
-0.155061 -0.0020175 0
0.126444 0.000306371 0
0.178528 -0.000763284 0
0.17458 0.000310779 0
-0.179179 0.00105673 0
-0.160626 0.00218704 0
0.172637 -2.89245e-05 0
0.170615 8.38424e-05 0
0.167722 -0.000295096 0
-0.0456677 0.00164493 0
0.118595 -0.00504595 0
0.12566 -0.00422474 0
0.131559 -0.00520196 0
0.155514 0.0045966 0
0.171381 -0.000886423 0
-0.0335352 -0.00422497 0
-0.169612 0.00286556 0
0.0809185 -0.00664819 0
-0.135929 0.0104785 0
-0.180678 0.00143874 0
-0.0931462 -0.00491607 0
-0.171221 0.00186777 0
0.142427 0.00420154 0
0.169526 0.00126972 0
-0.0504513 -0.00364607 0
0.14124 -0.00382513 0
0.172057 0.00527113 0
0.169741 0.0022281 0
0.113014 -0.00343357 0
-0.170688 0.0015936 0
-0.0960457 -0.00232797 0
0.176125 0.000469211 0
0.119278 -0.000551784 0
-0.150567 -0.000817602 0
-0.169023 0.00146716 0
-0.173252 0.00145556 0
-0.0430755 0.00379088 0
0.146597 -0.00280407 0
0.158451 -0.00206818 0
0.158585 0.00262191 0
0.133088 0.00415944 0
-0.0837156 0.00023496 0
0.180749 -0.00150795 0
-0.166688 0.00151818 0
-0.0434828 -0.00203859 0
0.172884 0.00236017 0
-0.0435112 -0.00143207 0
-0.11241 0.00594457 0
-0.166524 0.00124508 0
-0.125866 -0.00311655 0
-0.168842 -0.000552878 0
-0.171765 -0.00206256 0
0.166523 0.000531436 0
-0.177965 0.00319841 0
-0.168814 0.00278568 0
0.174795 0.00273816 0
0.17445 0.000152246 0
0.136798 -0.00795465 0
0.181303 -0.000871686 0
0.180918 0.000741058 0
0.173775 -0.000981727 0
0.0286177 0.022592 0
0.177702 -0.000975745 0
0.150873 -0.00351785 0
-0.100563 -0.00548819 0
0.162513 0.00322178 0
-0.142077 0.00281226 0
0.172755 0.000959377 0
-0.141473 0.0054106 0
-0.153306 0.00254799 0
-0.168632 0.00191092 0
0.170516 0.0026799 0
-0.147631 0.0105614 0
0.174081 0.00177148 0
0.159444 -0.00204774 0
-0.0472511 -0.00286864 0
0.181603 -0.00151991 0
-0.166785 -0.00281367 0
14.76 15.4388 0
0.0666474 -0.00188325 0
-0.149255 0.00475798 0
-0.117369 -0.00361316 0
0.166664 0.000704486 0
-0.0720235 -0.00817036 0
0.143658 -0.000634898 0
-0.145969 0.0048866 0
-0.105037 -0.00584912 0
-0.172161 0.00300619 0
-0.178202 0.00373773 0
0.172132 0.000442421 0
-0.170271 0.000177083 0
-0.0252389 0.0101125 0
-0.15236 0.00594816 0
-0.177074 0.00238922 0
-0.172652 -0.00259774 0
0.180449 -0.000700107 0
0.0446041 0.00807031 0
-0.167027 0.00158468 0
0.177357 0.00102454 0
0.17368 0.000247146 0
-0.154211 0.00468289 0
-0.168372 0.000405974 0
-0.171088 -0.00107628 0
0.169336 0.00237853 0
0.0860156 0.0100611 0
-0.0239612 0.00548919 0
-0.177213 0.00225202 0
-0.142958 0.00259019 0
0.134808 -0.00773962 0
-0.13686 -0.000797868 0
-0.170668 0.00166573 0
0.085987 -0.000568845 0
0.176757 0.000457634 0
-0.114044 -0.0015043 0
-0.172311 0.00181215 0
-0.113613 -0.00419552 0
0.0984471 0.00378067 0
0.171031 0.0029622 0
-0.167972 0.0034199 0
0.172874 0.000218431 0
0.179702 0.00202534 0
0.122958 0.00670278 0
0.12103 0.00309537 0
-0.160847 0.00264785 0
0.168637 -0.000688153 0
-0.0731796 -0.00247493 0
-0.153099 0.00387864 0
0.167174 0.000525143 0
-0.153496 0.00370316 0
0.146272 0.00468546 0
0.0550723 0.0094378 0
0.0984235 0.00106859 0
0.178866 0.000900099 0
-0.163295 0.00221135 0
0.0367809 -0.00255802 0
0.0332318 -0.00966659 0
-0.130084 0.00216784 0
-0.169334 0.000964737 0
-0.168161 0.00126002 0
-0.168108 5.11572e-05 0
0.170722 0.000143128 0
0.170624 0.000182128 0
0.174071 0.000157115 0
-0.172139 -0.000686737 0
0.121147 0.00239359 0
-4.68812 13.2872 0
-0.179152 0.00234283 0
-0.173404 0.00141633 0
0.166661 0.000429028 0
-0.16507 0.00127571 0
0.165604 0.00327252 0
-0.16958 -0.000199973 0
-0.154812 0.000295628 0
-0.0695064 -0.00836422 0
-0.165632 0.00135001 0
0.166231 -7.63397e-05 0
-0.146783 0.00474376 0
-0.178109 -0.00101255 0
-0.0709026 0.00925645 0
-0.169951 0.00192776 0
-0.171657 0.0018867 0
0.149236 -0.000569568 0
-0.0685537 0.00332793 0
0.170727 0.000150467 0
0.175799 -0.000623859 0
0.158843 0.00865036 0
0.176464 0.00203625 0
0.170504 0.003063 0
0.181875 0.00216932 0
-0.0950625 0.00845014 0
-0.155922 0.00112586 0
-0.178276 0.00104299 0
0.180248 0.000878842 0
-0.031159 0.00310196 0
0.169013 -0.000147092 0
0.16335 0.00160021 0
0.174442 0.000228545 0
0.0322271 0.00534343 0
-0.0994079 0.0118699 0
0.158412 0.00327189 0
-0.0272934 -8.8882e-05 0
-0.095309 0.00494947 0
-0.145449 0.00520635 0
0.171538 0.00342463 0
-0.113723 0.00602283 0
0.158113 -0.00170317 0
0.124274 -0.00173433 0
-0.176054 0.00290341 0
0.140246 -0.00579622 0
0.180092 -0.00162897 0
0.165705 -0.000504766 0
0.172973 0.00363899 0
-0.172871 0.0025113 0
-0.0470508 0.00734179 0
0.171811 0.00171881 0
0.174847 0.000160361 0
0.122216 0.0165847 0
-0.163828 0.000206651 0
-0.159552 0.00253528 0
0.179576 0.000752458 0
-0.165703 -0.000839356 0
0.168342 0.00159929 0
0.174718 -0.000439353 0
0.0782933 -0.00906497 0
0.177106 0.00240859 0
-0.175393 0.00177369 0
-0.150342 0.000116949 0
-0.111761 -0.000896638 0
0.0222462 -0.0029944 0
0.031739 -0.0228205 0
-0.164931 0.0014277 0
0.091776 -0.0129168 0
-0.0223262 0.020856 0
-0.174331 0.0029783 0
-0.122188 0.00588297 0
-0.173251 0.00218206 0
-0.0706893 -0.00435522 0
0.17536 0.00343531 0
-0.123781 0.00695941 0
-0.174601 0.000535669 0
-3.6749 4.49652 0
0.173113 -0.00191457 0
0.173226 0.000109458 0
-0.139078 0.00607174 0
0.169427 0.00174864 0
0.167623 0.000301124 0
9144.19 -35369 0
0.0572623 0.00653206 0
-0.171406 0.00199907 0
-0.134373 -0.000748157 0
0.180048 0.00198847 0
3.5491 -7.18885 0
0.163913 0.00301559 0
-0.170298 -0.00204516 0
-0.0978915 0.000633414 0
-0.170706 -0.000817885 0
-0.171202 0.00331644 0
0.169529 3.30218e-05 0
-0.170513 -3.64671e-05 0
-0.158859 0.00440897 0
0.131953 0.00565576 0
-0.170755 0.000588909 0
-0.144178 0.00646129 0
-0.149756 0.00388341 0
0.179529 0.00248486 0
0.158099 -0.00254792 0
-0.140228 0.0110793 0
0.176719 -0.000274045 0
-0.165774 -0.00153005 0
-0.150614 -0.00100573 0
-0.17319 0.0010355 0
4.88447 -5.38836 0
-0.168783 -0.00157021 0
0.170613 0.00200047 0
-0.172027 0.00182159 0
-0.170037 0.00133743 0
-0.0430326 0.00656022 0
0.16173 0.00875884 0
-0.0612512 0.0171382 0
0.041438 0.0104666 0
-0.172497 0.00211006 0
-0.04248 0.00177634 0
-0.172604 3.38327e-05 0
-0.172879 0.00281466 0
0.165134 -0.00163082 0
0.147443 0.00489998 0
-0.15311 0.00299093 0
0.155716 0.00236319 0
0.135881 0.00118749 0
-0.164425 0.00131838 0
-0.100668 -0.00239356 0
0.115943 -0.00689062 0
-0.163373 0.000749528 0
0.15462 -0.00361527 0
0.063087 -0.00124894 0
-0.162084 -5.85064e-05 0
0.146027 0.000119665 0
0.15975 -0.000501741 0
0.1774 -0.00159006 0
0.173402 -8.14482e-05 0
0.175387 0.000559774 0
0.16873 0.00352712 0
-0.164744 0.00129515 0
0.131475 0.00502145 0
-0.149701 -0.00128616 0
0.0744065 0.010821 0
-0.168008 0.00140237 0
-0.0727006 -0.00186342 0
-0.154047 0.00607947 0
0.0546366 -0.00544814 0
-0.174829 0.0019179 0
0.166663 0.000167773 0
-0.0383802 0.0107851 0
0.0665581 0.00621541 0
-0.176126 0.00182073 0
[...]
      <PointData Scalars="T">
        <DataArray type="Float32" Name="T" format="ascii" NumberOfComponents="1">
499.087
14431.4
318.005
318.005
14506.3
14486
318.005
14512.2
318.005
14506.3
318.005
499.087
14506.3
13984.5
14465
499.087
13984.5
328.77
307.357
14502.4
14506.3
499.087
14486
355.673
318.005
499.087
13984.5
318.005
14506.3
14506.3
14506.3
13984.5
433.941
427.751
499.087
318.005
308.433
14482
13984.5
13984.5
499.087
499.087
13984.5
385.925
440.647
14506.3
499.087
318.005
325.656
318.342
499.087
13984.5
14506.3
306.887
14387.7
14507
443.439
499.087
499.087
318.005
499.087
308.433
318.005
318.005
14506.3
13688.8
310.757
443.439
499.087
314.885
14488.9
332.184
333.273
499.087
499.087
13984.5
499.087
14506.3
499.087
14407.2
13984.5
14506.3
499.087
14461.8
318.005
14498
318.005
13984.5
14506.3
13984.5
499.087
14509
318.005
14506.3
13984.5
14506.3
499.087
14470.6
14506.3
14512.2
13984.5
13984.5
382.912
13984.5
329.21
499.087
499.087
499.087
499.087
13984.5
14506.3
14470.6
14506.3
499.087
499.087
14493.3
14506.3
499.087
14393
13984.5
454.578
13984.5
318.227
14506.3
368.506
306.902
499.087
499.087
13984.5
371.476
318.005
382.912
13688.8
14506.3
318.005
413.391
318.005
14476.9
318.005
318.005
318.005
499.087
318.005
13984.5
14506.3
318.005
14506.3
14431.4
13984.5
14505.4
499.087
313.847
13984.5
318.005
499.087
499.087
318.005
14465
13984.5
318.342
318.005
13984.5
14462.2
14451.6
14506.3
318.005
318.005
499.087
499.087
14508.7
318.005
14486
13984.5
499.087
13984.5
14506.3
14420.3
13984.5
13984.5
13984.5
324.481
14506.3
14506.3
499.087
310.757
318.005
318.005
349.402
318.005
499.087
318.005
318.005
13984.5
499.087
14506.3
409.68
14506.3
14506.3
14506.3
499.087
14506.3
390.225
318.005
13984.5
318.005
13984.5
499.087
318.005
14506.3
13984.5
316.716
13984.5
318.005
14506.3
13984.5
14506.3
14506.3
324.114
14513.3
14506.3
14506.3
14506.3
13984.5
318.005
499.087
14465.5
440.647
324.742
14506.3
14462.8
13984.5
499.087
499.087
14506.3
14506.3
14506.3
318.005
13984.5
14486.1
318.005
320.984
13984.5
14500.9
13984.5
499.087
499.087
14506.3
310.459
499.087
499.087
499.087
14506.3
318.005
13984.5
14506.3
320.716
14506.3
499.087
499.087
448.184
424.339
14506.3
318.005
318.005
14506.3
9844.12
14393
14522.6
318.227
306.902
310.757
13984.5
499.087
14506.3
14506.3
14414
333.273
14382.9
499.087
13984.5
14512.4
13984.5
14407.2
318.005
14506.3
13984.5
14506.3
14506.3
14507
318.005
14506.3
310.757
318.005
499.087
499.087
499.087
499.087
14506.3
14054.9
13653.9
385.471
14506.3
318.005
307.534
313.88
499.087
14506.3
499.087
13984.5
14506.3
14506.3
499.087
14506.3
318.005
318.005
14506.3
318.005
318.005
318.005
499.087
14506.3
14506.3
317.084
308.062
499.087
14509.7
14506.3
357.391
13984.5
307.357
318.005
318.005
499.087
14499.8
14519.7
13984.5
318.005
318.005
14422.2
318.005
14506.3
14506.3
14506.3
14506.3
13984.5
499.087
14506.3
12508.6
14506.3
318.005
369.321
14506.3
343.173
371.476
318.005
499.087
14506.3
13984.5
499.087
318.005
499.087
13984.5
14489.2
13984.5
14506.3
469.139
13984.5
14506.3
499.087
13862.9
14506.3
14506.3
499.087
318.005
14506.3
318.005
13984.5
13984.5
13605.5
318.005
13984.5
499.087
14501.7
14398.6
14506.3
499.087
14506.3
499.087
14506.3
14499.8
14524.4
14506.3
318.005
499.087
14506.3
499.087
327.251
14385.3
13984.5
318.005
14454.6
318.005
318.005
13984.5
354.819
318.005
318.005
318.005
332.986
499.087
14374.5
499.087
13984.5
499.087
14408.2
13984.5
14506.3
318.005
14506.3
308.062
14506.3
499.087
14501.7
322.287
329.21
499.087
318.005
14451.6
14486
459.68
14506.3
499.087
14465.5
499.087
13278.6
13984.5
14506.3
14410.2
363.096
314.885
499.087
318.005
14369.1
14518.2
13984.5
14506.3
13984.5
499.087
318.005
13984.5
306.933
13984.5
13984.5
318.005
318.005
13984.5
14506.3
12483.9
13984.5
319.566
13984.5
320.716
14506.3
13984.5
356.794
499.087
13984.5
13984.5
14506.3
14506.3
499.087
14458.7
318.005
310.757
499.087
14506.3
14506.3
14506.3
318.342
499.087
13635.3
13984.5
13984.5
14406.6
307.233
499.087
393.186
349.402
14506.3
499.087
499.087
432.258
14465
499.087
318.005
13984.5
328.99
14470.6
14506.3
14506.3
13984.5
14518.2
13984.5
13984.5
13984.5
318.005
318.005
318.005
499.087
318.005
499.087
499.087
13984.5
499.087
14422.2
318.005
499.087
14506.3
499.087
14506.3
13828
14506.3
14363.2
499.087
318.005
499.087
356.794
318.005
318.005
14506.3
499.087
499.087
14479.9
499.087
12414.6
14431.4
13984.5
318.005
459.68
14506.3
14506.3
13984.5
14518.2
13984.5
499.087
499.087
338.896
499.087
13984.5
14506.3
499.087
14506.3
440.076
499.087
13984.5
14483.6
318.005
14506.3
499.087
499.087
13984.5
499.087
13984.5
459.68
14428.6
14506.3
396.848
318.005
13984.5
13984.5
14458.9
14498
14506.3
499.087
318.005
463.817
349.402
499.087
13984.5
14318.7
14454.6
13984.5
13292.2
499.087
318.005
14506.3
499.087
13984.5
318.263
499.087
332.979
14479.5
499.087
13984.5
14054.9
499.087
318.005
13984.5
499.087
14479.5
318.005
318.005
499.087
410.317
13984.5
13984.5
14506.3
14054.9
499.087
13984.5
318.005
13984.5
13984.5
499.087
394.385
13984.5
13984.5
14506.3
14506.3
318.005
318.005
14506.3
13984.5
13984.5
499.087
318.005
14407.1
14506.3
318.005
318.005
499.087
499.087
14431.4
13984.5
13984.5
13984.5
13984.5
499.087
14506.3
499.087
499.087
13984.5
14506.3
315.163
318.005
13984.5
14506.3
318.005
13984.5
13984.5
14486
318.005
13984.5
14470.6
499.087
14506.3
14467.3
318.005
499.087
14385.3
499.087
318.005
14407.1
499.087
367.012
14408.2
14506.3
318.005
339.085
395.433
499.087
499.087
14508.7
14107.4
14506.3
14506.3
499.087
14478.9
13984.5
396.848
499.087
14506.3
14486
14506.3
318.227
499.087
499.087
499.087
14506.3
339.894
318.005
14410.2
14506.3
323.629
328.99
499.087
499.087
307.233
14506.3
499.087
499.087
318.005
14504.4
499.087
14506.3
318.005
305.988
318.005
499.087
318.005
14506.3
308.164
14410.2
499.087
14382.9
14506.3
14506.3
318.005
13984.5
499.087
14499.1
371.476
499.087
13984.5
318.005
13653.9
14514.5
14450
14306.5
14506.3
14506.3
307.233
318.005
318.005
315.163
318.005
12508.6
499.087
14506.3
13862.9
318.005
318.005
14441.2
394.02
14506.3
499.087
14506.3
14506.3
14506.3
13984.5
13984.5
334.962
14506.3
499.087
14506.3
13984.5
14506.3
14521.3
13984.5
368.506
499.087
318.005
14506.3
13984.5
14506.3
14414
13984.5
14506.3
13984.5
499.087
14465.5
13984.5
318.005
318.005
393.186
14406.6
14506.3
13984.5
499.087
14513.3
314.885
14507.9
13984.5
14511.4
499.087
365.08
499.087
349.757
318.005
14506.3
14506.3
318.005
14506.3
499.087
14407.2
499.087
14406.6
13984.5
363.096
14462.2
316.399
14506.3
14506.3
318.005
322.287
13984.5
499.087
318.005
327.251
499.087
14506.3
13984.5
14512.2
499.087
14506.3
389.414
499.087
318.005
318.005
14107.4
14506.3
306.411
14506.3
14506.3
318.005
310.459
499.087
466.487
14506.3
13984.5
499.087
14506.3
305.708
499.087
14467.8
14506.3
308.079
10851.9
318.005
391.177
14441.2
14414
318.005
319.219
14506.3
13984.5
13984.5
499.087
311.847
12587.8
14506.3
14506.3
14363.2
13984.5
318.005
14506.3
318.005
14422.2
318.005
382.912
14454.6
443.439
14437.3
499.087
341.493
14506.3
13984.5
390.225
318.005
499.087
499.087
499.087
499.087
14451.6
499.087
318.005
14510.3
318.005
499.087
14506.3
328.81
318.005
499.087
14506.3
14506.3
13984.5
318.005
13984.5
339.085
13984.5
14462.2
14506.3
499.087
13984.5
14458.7
13984.5
318.005
14361
14506.3
318.005
307.61
13984.5
13984.5
318.005
14506.3
318.005
318.005
14509.7
499.087
13984.5
305.988
318.005
499.087
318.005
499.087
499.087
14506.3
310.663
318.005
329.21
14506.3
307.233
13984.5
14506.3
13984.5
318.005
499.087
14404.8
13984.5
14506.3
318.005
14506.3
14506.3
332.986
355.673
499.087
499.087
14506.3
14425.8
318.005
14506.3
499.087
14506.3
13984.5
528.295
13984.5
318.005
14506.3
13984.5
14506.3
14506.3
14506.3
14520.5
13984.5
14506.3
14506.3
499.087
14393
318.005
318.005
318.005
318.005
499.087
14506.3
348.603
14499.4
499.087
14431.4
499.087
318.263
13984.5
499.087
14506.3
318.005
499.087
318.005
14508.6
413.391
14506.3
334.962
13984.5
13984.5
499.087
13984.5
14506.3
14506.3
13984.5
318.005
499.087
499.087
499.087
13984.5
318.005
13984.5
318.005
307.077
499.087
499.087
499.087
318.005
341.493
13984.5
499.087
332.184
13984.5
14506.3
318.005
14506.3
516.645
14506.3
13984.5
14500.1
14273.3
13984.5
14498.7
499.087
13984.5
499.087
14318.7
318.005
14506.3
499.087
14506.3
14506.3
499.087
499.087
14506.3
318.005
499.087
343.231
319.566
13984.5
14506.3
14453.2
14054.9
318.005
14506.3
350.722
14506.3
14506.3
328.99
318.005
14506.3
499.087
318.005
348.603
318.005
14509
339.894
499.087
14506.3
14506.3
14506.3
13984.5
14506.3
318.005
14496.9
318.005
13984.5
528.295
318.005
499.087
14506.3
13984.5
13984.5
14506.3
318.005
499.087
13984.5
318.005
389.414
13984.5
13984.5
318.005
14506.3
316.105
318.005
499.087
13984.5
14506.3
14506.3
14506.3
499.087
13097.3
499.087
14361
14506.3
393.186
499.087
499.087
318.005
499.087
14251.9
14376.1
13984.5
14507.9
318.005
426.995
499.087
499.087
499.087
499.087
13984.5
14506.3
14506.3
14506.3
14511.4
14441.2
14431.4
319.219
318.005
318.005
355.673
329.21
14465.3
318.005
14506.3
327.333
13984.5
14506.3
499.087
14414
14363.2
318.227
13653.9
318.005
318.005
318.005
308.609
499.087
499.087
318.005
499.087
13984.5
412.766
14422.2
499.087
499.087
339.085
14508.6
318.005
13984.5
499.087
499.087
499.087
499.087
14506.3
318.005
14506.3
499.087
328.81
318.005
14398.6
14404.7
13766.3
318.005
318.005
13984.5
499.087
14507.9
312.95
308.062
13984.5
14506.3
14425.8
318.005
499.087
14506.3
394.385
14506.3
307.974
14506.3
14486
13701.9
14506.3
318.005
318.005
13984.5
14506.3
14506.3
14506.3
318.005
13984.5
499.087
14506.3
499.087
310.708
14506.3
14408.2
499.087
14506.3
316.556
318.005
318.005
14506.3
332.986
318.005
13984.5
14506.3
318.005
14506.3
390.217
14506.3
14408.2
394.385
13984.5
13984.5
316.34
356.794
499.087
318.005
499.087
13984.5
307.974
499.087
14506.3
14506.3
318.005
14505.4
499.087
385.471
12414.6
14478.9
499.087
13653.9
9410.29
440.799
318.005
9410.29
14422.2
454.578
14506.3
14406.6
13984.5
14519.7
14506.3
318.005
318.005
14506.3
14506.3
318.005
13984.5
318.005
499.087
499.087
14506.3
14506.3
318.005
14318.7
499.087
14506.3
499.087
318.005
14465.3
318.005
318.005
13984.5
14465
13984.5
13984.5
14478.9
14506.3
14500.9
14506.3
499.087
376.776
318.005
14506.3
318.005
14506.3
14506.3
316.34
14491.4
14465
499.087
14414
13984.5
318.005
13984.5
13984.5
499.087
14506.3
499.087
306.254
318.005
318.005
14506.3
390.225
363.096
14506.3
14499.9
499.087
14506.3
14506.3
316.716
443.439
348.603
13984.5
308.609
14506.3
313.847
318.005
14374.5
14390.8
14393
318.005
324.481
14506.3
14506.3
14496.9
13984.5
305.972
13984.5
318.005
13984.5
13984.5
316.716
499.087
318.005
13984.5
499.087
318.005
499.087
9844.12
306.902
14363.2
14524.8
14506.3
14486
14384.6
13984.5
13984.5
499.087
305.708
13984.5
14506.3
14506.3
318.005
14506.3
14506.3
14506.3
13984.5
13984.5
318.005
318.005
499.087
14506.3
499.087
499.087
310.757
13984.5
318.005
307.077
499.087
367.012
499.087
14506.3
14458.9
14428.2
14506.3
14306.5
310.757
13984.5
13984.5
499.087
14506.3
13984.5
14506.3
14490.8
14484.8
14495.9
14381.5
318.005
13984.5
13984.5
14506.3
13984.5
14499.7
318.005
13984.5
14506.3
318.005
318.005
318.005
13984.5
13984.5
14506.3
499.087
14499.1
14508.6
516.645
14506.3
14468.8
14506.3
499.087
14506.3
499.087
499.087
318.005
13984.5
318.005
318.263
13984.5
14406.6
318.005
499.087
13984.5
14506.3
14506.3
318.005
14506.3
13984.5
14506.3
499.087
499.087
318.005
499.087
13984.5
14506.3
14465.5
318.005
499.087
14506.3
499.087
499.087
14508.9
13984.5
13984.5
499.087
499.087
499.087
14414
499.087
14420.3
499.087
14506.3
14506.3
14467.3
323.629
371.476
318.005
318.005
14516.5
318.005
318.005
14461.8
14474
499.087
499.087
318.072
14506.3
318.005
14476.9
318.005
499.087
318.005
316.67
14509
14506.3
13464.6
499.087
318.005
13984.5
349.547
14506.3
499.087
14502.4
499.087
345.458
499.087
13984.5
349.179
14486.1
499.087
499.087
318.005
14518.9
318.005
318.005
318.005
318.005
425.245
14462.2
499.087
318.005
14506.3
13984.5
14520
13521.5
14506.3
14506.3
14479.9
14506.3
318.005
371.476
13984.5
499.087
14506.3
14437.3
14451.6
318.005
13984.5
13984.5
422.639
318.005
499.087
499.087
499.087
14054.9
499.087
499.087
318.005
499.087
14506.3
315.43
14361
13984.5
13984.5
318.005
13984.5
14506.3
14506.3
14506.3
14506.3
14506.3
13671.7
14506.3
308.983
308.554
459.68
14482
318.005
14405
318.005
499.087
14506.3
332.304
328.318
499.087
499.087
318.005
14489.2
318.005
385.925
14506.3
499.087
14435.2
499.087
14506.3
318.005
324.481
14506.3
14506.3
13984.5
14506.3
13984.5
14506.3
318.005
318.005
318.005
13984.5
499.087
14506.3
324.742
14520
499.087
14478.9
14506.3
13984.5
14499.7
348.603
318.005
13984.5
318.005
499.087
13984.5
14506.3
318.342
499.087
14506.3
499.087
499.087
318.005
395.433
318.005
13984.5
14506.3
13984.5
13984.5
499.087
318.005
499.087
315.637
318.005
14506.3
14410.2
14512.4
318.005
394.02
348.603
318.005
14506.3
318.005
499.087
499.087
499.087
318.342
499.087
14506.3
14506.3
14506.3
499.087
14506.3
14506.3
376.776
440.799
394.385
440.647
14506.3
499.087
14506.3
499.087
499.087
14506.3
318.005
13984.5
13984.5
13984.5
394.385
13984.5
13984.5
14361
13984.5
14251.9
14493.3
13984.5
13984.5
9410.29
318.005
14506.3
14506.3
499.087
499.087
318.005
310.757
499.087
14465
14506.3
499.087
13984.5
13984.5
499.087
14484.8
13984.5
306.726
499.087
466.487
14506.3
14501.7
318.005
14506.3
14506.3
318.005
14509
310.663
345.458
318.005
306.902
14506.3
14506.3
14506.3
318.005
14483.6
14506.3
14506.3
14506.3
13984.5
14506.3
499.087
13984.5
14506.3
14408.2
499.087
14506.3
318.005
14506.3
14405.5
499.087
14499.4
13984.5
318.005
365.08
14511.4
14511.3
13729.1
376.776
14369.1
14482
13653.9
13984.5
14506.3
13984.5
13984.5
499.087
318.005
13984.5
14506.3
318.005
499.087
318.005
13984.5
318.005
318.005
499.087
499.087
14506.3
13984.5
14506.3
14499.7
305.755
14404.7
499.087
14476.9
13984.5
13984.5
318.005
404.073
13984.5
14506.3
339.085
14484.7
499.087
318.005
499.087
318.005
318.005
499.087
14405
13984.5
14165
14506.3
318.005
318.072
13984.5
412.766
12587.8
14499.1
14506.3
13984.5
14506.3
306.726
318.005
14422.2
13984.5
311.847
499.087
14496.9
318.005
14506.3
371.476
318.005
376.776
14506.3
499.087
318.005
318.005
499.087
13984.5
409.68
13984.5
13984.5
313.88
306.902
13984.5
14435.2
499.087
318.005
318.005
13984.5
13984.5
14486.1
499.087
499.087
13984.5
499.087
318.005
14435.2
318.005
499.087
14506.3
13984.5
14461.8
14506.3
14506.3
14420.3
14506.3
14506.3
307.534
13984.5
424.339
13984.5
13984.5
499.087
14054.9
14506.3
14506.3
13984.5
318.005
14506.3
13984.5
499.087
14506.3
13509.3
14408.2
499.087
308.609
406.375
318.005
13984.5
13984.5
14376.1
13984.5
14437.3
14506.3
13984.5
14465
14431.4
318.005
499.087
499.087
432.258
409.68
13984.5
14458.7
499.087
499.087
13984.5
13984.5
14398.6
318.005
14361
14506.3
14506.3
318.005
14506.3
318.005
499.087
367.012
318.005
14451.6
499.087
14506.3
14506.3
13984.5
499.087
14506.3
499.087
397.621
406.173
328.81
14506.3
13984.5
350.722
382.912
332.304
499.087
499.087
349.402
13984.5
427.751
318.005
14506.3
14405.8
14478.9
318.005
329.21
318.005
14422.2
13828
14506.3
499.087
14506.3
499.087
12508.6
307.622
318.005
318.005
348.603
14506.3
499.087
13984.5
306.597
324.114
499.087
14506.3
13984.5
13984.5
14506.3
13984.5
13984.5
305.708
14506.3
14518.9
318.005
318.005
305.813
14408.2
14506.3
13984.5
13984.5
499.087
14506.3
14478.7
13984.5
306.887
14506.3
12483.9
310.757
13653.9
499.087
13984.5
318.005
14393
13984.5
499.087
14506.3
318.005
14523.6
14506.3
318.005
499.087
13984.5
14476.9
14506.3
307.233
14506.3
13984.5
466.487
13635.3
499.087
499.087
14420.3
499.087
318.005
318.005
318.005
310.663
14512
318.005
499.087
14306.5
499.087
14506.3
13984.5
13984.5
14506.3
13984.5
318.005
14462.8
499.087
499.087
499.087
318.005
499.087
318.005
318.005
499.087
13984.5
308.164
499.087
13984.5
318.005
318.005
499.087
338.896
13984.5
318.005
369.321
13984.5
499.087
13984.5
13984.5
318.005
14486.1
14506.3
354.819
14506.3
307.622
328.77
499.087
328.99
318.005
318.005
318.005
320.716
415.072
14509
13984.5
13521.5
425.799
343.231
14506.3
318.005
341.493
14384.6
318.005
499.087
318.005
463.817
318.005
14509
499.087
382.912
14506.3
318.005
13984.5
499.087
395.433
499.087
14506.3
13984.5
499.087
14488.9
14506.3
318.005
318.005
318.005
14506.3
499.087
433.941
14406.6
14404.8
318.005
318.005
499.087
13984.5
14512.3
318.005
307.687
499.087
318.005
14508.6
14506.3
318.005
313.982
499.087
499.087
318.005
14506.3
499.087
13984.5
499.087
14506.3
14506.3
308.433
499.087
14506.3
12483.9
499.087
13984.5
14435.2
13292.2
14435.2
14506.3
14479.5
13984.5
318.005
318.005
14476.6
307.476
14478.7
499.087
318.005
13984.5
307.233
318.005
14506.3
318.005
13671.7
13509.3
14506.3
14499.1
499.087
499.087
318.005
13984.5
318.005
13984.5
318.005
318.005
14476.9
13984.5
14499.4
319.219
307.077
499.087
328.81
13984.5
318.005
14506.3
341.493
14506.3
310.459
14467.3
14506.3
499.087
318.005
13984.5
337.369
14506.3
307.476
14506.3
13984.5
13984.5
13984.5
318.005
14506.3
13984.5
14382.9
13984.5
13984.5
318.005
14506.3
318.005
318.005
499.087
318.005
499.087
318.005
14506.3
13984.5
10857.6
499.087
499.087
14470.6
318.005
371.476
394.385
318.005
14506.3
14506.3
499.087
499.087
318.005
382.912
14459.9
327.333
13984.5
14498.7
14506.3
318.005
14506.3
322.287
13984.5
318.005
14506.3
13984.5
499.087
14506.3
499.087
318.005
499.087
10851.9
12692.5
306.597
318.005
318.005
318.005
499.087
14511.7
499.087
318.342
14506.3
318.072
499.087
318.005
14512.5
499.087
499.087
13984.5
14374.5
13828
349.179
318.005
14486
14506.3
14435.2
14520.6
341.493
318.005
14506.3
13984.5
307.687
13984.5
14506.3
14506.3
318.005
499.087
13984.5
14462.2
13984.5
318.005
13984.5
13984.5
499.087
499.087
499.087
499.087
14506.3
13984.5
13984.5
13984.5
499.087
318.005
499.087
320.984
14506.3
14486
14506.3
14498
13984.5
14486
14425.8
327.251
306.726
318.005
318.005
13984.5
13984.5
14482
14506.3
14506.3
318.005
14508.9
499.087
499.087
318.005
13984.5
13984.5
463.817
499.087
318.005
13984.5
499.087
14506.3
14509
390.217
365.08
318.005
318.005
499.087
499.087
499.087
499.087
318.005
318.005
14425.8
318.005
14506.3
499.087
14506.3
14506.3
14252.3
318.005
308.062
13729.1
499.087
14506.3
13984.5
14481.8
13984.5
318.005
14506.3
11766.2
459.68
426.441
13984.5
14506.3
14506.3
13862.9
318.005
318.005
318.005
12508.6
305.792
339.115
318.005
13278.6
14510.3
324.114
306.597
499.087
499.087
399.326
499.087
13984.5
306.902
496.051
308.554
14462.2
14506.3
14507
14506.3
14506.3
318.005
14476.6
14390.8
14506.3
14506.3
14506.3
306.933
350.722
318.005
14506.3
310.757
318.005
318.005
318.005
499.087
14506.3
14471.9
13984.5
318.005
14393
318.005
13984.5
318.005
14363.2
14405.5
14506.3
499.087
13984.5
13984.5
499.087
13984.5
306.597
14506.3
315.163
499.087
499.087
9844.12
332.184
14382.9
13984.5
318.005
14506.3
318.005
318.005
499.087
499.087
499.087
14506.3
499.087
14369.1
13984.5
327.251
13984.5
13984.5
13701.9
13984.5
14506.3
14465.3
14506.3
339.085
13984.5
14506.3
499.087
318.005
318.005
13984.5
14478.9
404.073
14474
14506.3
499.087
13984.5
14506.3
13984.5
14506.3
13984.5
14506.3
14474
308.164
418.618
14499.8
13984.5
318.005
318.005
13984.5
14506.3
499.087
432.258
499.087
14506.3
14506.3
318.005
13984.5
14467.8
13984.5
424.339
318.005
318.005
332.304
499.087
307.476
499.087
318.005
14506.3
13984.5
12982.8
10851.9
13984.5
14506.3
499.087
14506.3
499.087
325.656
14506.3
318.005
499.087
13984.5
13984.5
440.799
14506.3
14506.3
499.087
14500.4
14385.3
14506.3
14506.3
13984.5
14506.3
13984.5
14506.3
14506.3
499.087
13984.5
13984.5
14506.3
13984.5
499.087
308.764
499.087
499.087
14506.3
13984.5
318.005
14506.3
14506.3
13464.6
354.819
318.005
14506.3
13984.5
499.087
318.005
13984.5
14506.3
13984.5
318.005
14506.3
318.005
14506.3
13984.5
499.087
306.574
14506.3
13984.5
318.005
318.005
14505.4
13984.5
14414
14506.3
14378.1
318.005
499.087
499.087
499.087
499.087
14506.3
318.005
318.005
499.087
14506.3
13984.5
14404.8
13984.5
499.087
318.005
339.085
306.902
14506.3
14506.3
14506.3
318.005
14506.3
357.391
13984.5
318.005
14506.3
499.087
316.556
14500.4
14435.2
14451.6
318.005