<?xml version="1.0"?>
<VTKFile type="ImageData" version="0.1" byte_order="LittleEndian">
  <ImageData Origin="0 0 0" Spacing="1e-05 1e-05 1e-05" WholeExtent="0 191 0 191 0 0">
    <Piece Extent="0 191 0 191 0 0">
      <CellData Scalars="T">
        <DataArray type="Float32" Name="T" format="ascii" NumberOfComponents="1">
419.034
15000
14999.7
14999.2
14998.3
14997
14995.1
14992.2
14988.2
14982.5
14974.6
14964.1
14950
14931.6
14907.7
14877.3
14838.9
14791.1
14732.2
14660.5
14574.1
14471.1
14349.7
14207.9
14044.1
13856.7
13644.3
13405.9
13140.8
12848.8
12530.1
12185.3
11815.6
11422.8
11009.1
10577
10129.6
9670.44
9203.07
8731.39
8259.36
7790.95
7330.05
6880.34
6445.29
6028.02
5631.26
5257.33
4908.08
4584.91
4288.72
4019.98
3778.71
3564.55
3376.76
3214.34
3076.01
2960.3
2865.61
2790.26
2732.51
2690.67
2663.07
2648.12
2644.35
2650.41
2665.07
2687.27
2716.06
2750.66
2790.38
2834.67
2883.07
2935.2
2990.75
3049.47
3111.14
3175.6
3242.66
3312.18
3384.02
3458.03
3534.06
3611.95
3691.54
3772.63
3855.03
3938.48
4022.72
4107.45
4192.31
4276.92
4360.86
4443.65
4524.81
4603.84
4680.22
4753.45
4823.06
4888.59
4949.67
5005.95
5057.16
5103.11
5143.67
5178.79
5208.49
5232.84
5251.99
5266.14
5275.54
5280.48
5281.3
5278.35
5272.01
5262.69
5250.75
5236.58
5220.48
5202.74
5183.56
5163.06
5141.29
5118.17
5093.55
5067.2
5038.83
5008.08
4974.59
4938.01
4898.02
4854.39
4806.96
4755.71
4700.74
4642.31
4580.78
4516.69
4450.65
4383.41
4315.75
4248.51
4182.53
4118.62
4057.57
4000.08
3946.76
3898.13
3854.6
3816.46
3783.9
3757.01
3735.81
3720.2
3710.06
3705.19
3705.35
3710.27
3719.63
3733.12
3750.38
3771.01
3794.59
3820.68
3848.8
3878.41
3908.96
3939.86
3970.52
4000.31
4028.62
4054.88
4078.52
4099.06
4116.09
4129.27
4138.36
4143.23
4143.77
4139.95
4131.61
4118.4
4099.37
4072.41
4033.09
3972.51
3873.07
3700.4
3387.22
2800.06
1663.24
312.458
625.741
15000
14999.7
14999.2
14998.3
14997
14995.1
14992.2
14988.2
14982.5
14974.7
14964.1
14950.1
14931.7
14907.8
14877.4
14839.1
14791.3
14732.5
14660.8
14574.5
14471.6
14350.3
14208.6
14044.9
13857.6
13645.4
13407.1
13142.1
12850.3
12531.6
12186.9
11817.4
11424.6
11010.9
10578.8
10131.5
9672.19
9204.72
8732.91
8260.71
7792.09
7330.95
6880.97
6445.62
6028.02
5630.92
5256.63
4907.01
4583.46
4286.89
4017.77
3776.14
3561.61
3373.49
3210.74
3072.11
2956.11
2861.17
2785.58
2727.64
2685.62
2657.86
2642.77
2638.89
2644.85
2659.43
2681.55
2710.29
2744.82
2784.49
2828.72
2877.05
2929.11
2984.59
3043.23
3104.82
3169.18
3236.14
3305.56
3377.3
3451.21
3527.15
3604.96
3684.47
3765.51
3847.86
3931.29
4015.53
4100.28
4185.18
4269.86
4353.89
4436.81
4518.11
4597.31
4673.89
4747.33
4817.17
4882.96
4944.3
5000.84
5052.33
5098.55
5139.39
5174.77
5204.71
5229.3
5248.67
5263.02
5272.6
5277.69
5278.63
5275.79
5269.53
5260.25
5248.34
5234.16
5218.03
5200.24
5180.99
5160.4
5138.52
5115.28
5090.54
5064.06
5035.56
5004.68
4971.08
4934.39
4894.31
4850.59
4803.1
4751.81
4696.82
4638.38
4576.87
4512.81
4446.82
4379.64
4312.04
4244.88
4178.97
4115.14
4054.17
3996.76
3943.52
3894.96
3851.49
3813.41
3780.91
3754.08
3732.93
3717.38
3707.29
3702.46
3702.66
3707.61
3717.01
3730.53
3747.8
3768.44
3792.03
3818.11
3846.19
3875.75
3906.24
3937.07
3967.63
3997.31
4025.5
4051.62
4075.12
4095.52
4112.4
4125.44
4134.4
4139.14
4139.59
4135.67
4127.28
4114.02
4094.98
4068.06
4028.86
3968.59
3869.99
3699.81
3394.76
2836.65
1811.48
313.347
629.284
15000
14999.7
14999.2
14998.3
14997
14995.1
14992.3
14988.2
14982.5
14974.7
14964.2
14950.2
14931.8
14908.1
14877.7
14839.5
14791.8
14733
14661.5
14575.3
14472.6
14351.5
14210.1
14046.6
13859.5
13647.5
13409.5
13144.8
12853.1
12534.7
12190.2
11820.8
11428.2
11014.6
10582.5
10135.1
9675.69
9208.04
8735.96
8263.43
7794.41
7332.79
6882.29
6446.35
6028.11
5630.32
5255.32
4904.96
4580.66
4283.34
4013.47
3771.1
3555.86
3367.05
3203.66
3064.41
2947.86
2852.4
2776.35
2717.99
2675.6
2647.52
2632.17
2628.05
2633.81
2648.22
2670.2
2698.8
2733.22
2772.76
2816.88
2865.08
2917
2972.33
3030.81
3092.22
3156.39
3223.16
3292.38
3363.91
3437.63
3513.38
3591.02
3670.39
3751.31
3833.57
3916.95
4001.19
4085.97
4170.96
4255.78
4339.99
4423.14
4504.74
4584.27
4661.23
4735.1
4805.4
4871.68
4933.53
4990.61
5042.64
5089.41
5130.77
5166.68
5197.12
5222.18
5241.99
5256.73
5266.66
5272.06
5273.26
5270.62
5264.51
5255.33
5243.47
5229.28
5213.1
5195.21
5175.82
5155.05
5132.96
5109.49
5084.5
5057.77
5029.01
4997.88
4964.04
4927.13
4886.86
4843
4795.39
4744.02
4688.98
4630.54
4569.06
4505.06
4439.16
4372.09
4304.63
4237.6
4171.85
4108.19
4047.38
3990.12
3937.02
3888.61
3845.28
3807.33
3774.95
3748.23
3727.18
3711.73
3701.73
3696.99
3697.27
3702.3
3711.77
3725.34
3742.65
3763.31
3786.89
3812.93
3840.96
3870.43
3900.79
3931.46
3961.83
3991.29
4019.23
4045.08
4068.3
4088.41
4105
4117.76
4126.47
4130.97
4131.21
4127.13
4118.6
4105.27
4086.21
4059.34
4020.33
3960.53
3863.04
3695.47
3396.39
2849.9
1836
313.284
629.554
15000
14999.7
14999.2
14998.4
14997.1
14995.1
14992.3
14988.2
14982.6
14974.8
14964.3
14950.4
14932
14908.4
14878.1
14840
14792.4
14733.9
14662.5
14576.6
14474.1
14353.3
14212.1
14049
13862.3
13650.6
13413
13148.7
12857.4
12539.3
12195.1
11826
11433.5
11020
10588
10140.5
9680.95
9213.03
8740.59
8267.58
7797.98
7335.68
6884.4
6447.59
6028.41
5629.63
5253.57
4902.13
4576.71
4278.27
4007.29
3763.82
3547.52
3357.68
3193.31
3053.15
2935.75
2839.51
2762.76
2703.77
2660.82
2632.26
2616.49
2612.01
2617.46
2631.61
2653.35
2681.75
2715.97
2755.34
2799.26
2847.27
2898.98
2954.08
3012.31
3073.46
3137.35
3203.82
3272.74
3343.98
3417.4
3492.87
3570.26
3649.4
3730.14
3812.27
3895.57
3979.78
4064.61
4149.72
4234.73
4319.21
4402.7
4484.71
4564.74
4642.25
4716.75
4787.73
4854.73
4917.34
4975.21
5028.03
5075.6
5117.76
5154.44
5185.63
5211.38
5231.84
5247.18
5257.64
5263.5
5265.08
5262.75
5256.88
5247.85
5236.06
5221.88
5205.62
5187.59
5167.99
5146.97
5124.57
5100.76
5075.4
5048.29
5019.15
4987.65
4953.46
4916.23
4875.69
4831.59
4783.81
4732.32
4677.22
4618.77
4557.34
4493.43
4427.67
4360.77
4293.51
4226.7
4161.18
4097.75
4037.18
3980.16
3927.29
3879.09
3835.96
3798.2
3766
3739.45
3718.56
3703.26
3693.4
3688.79
3689.19
3694.33
3703.89
3717.54
3734.9
3755.58
3779.15
3805.15
3833.07
3862.41
3892.58
3923.01
3953.09
3982.22
4009.79
4035.24
4058.04
4077.72
4093.89
4106.23
4114.55
4118.71
4118.64
4114.31
4105.6
4092.14
4073.04
4046.24
4007.46
3948.16
3851.72
3686.22
3390.85
2849.85
1842.89
313.292
634.231
15000
14999.7
14999.2
14998.4
14997.1
14995.1
14992.3
14988.3
14982.7
14974.9
14964.5
14950.6
14932.3
14908.8
14878.6
14840.6
14793.3
14734.9
14663.8
14578.2
14476
14355.5
14214.8
14052.1
13865.9
13654.7
13417.6
13153.7
12862.9
12545.3
12201.5
11832.7
11440.5
11027.2
10595.2
10147.7
9687.96
9219.73
8746.83
8273.23
7802.9
7339.72
6887.44
6449.53
6029.14
5629.05
5251.62
4898.76
4571.89
4271.98
3999.53
3754.61
3536.9
3345.7
3180.03
3038.65
2920.11
2822.82
2745.12
2685.27
2641.57
2612.34
2595.99
2591.01
2596.03
2609.8
2631.23
2659.33
2693.29
2732.39
2776.05
2823.79
2875.22
2930.01
2987.91
3048.7
3112.21
3178.3
3246.82
3317.65
3390.68
3465.78
3542.83
3621.67
3702.16
3784.1
3867.28
3951.45
4036.33
4121.58
4206.82
4291.63
4375.55
4458.1
4538.75
4616.98
4692.27
4764.13
4832.07
4895.67
4954.56
5008.43
5057.05
5100.25
5137.94
5170.1
5196.79
5218.11
5234.23
5245.39
5251.87
5253.98
5252.06
5246.51
5237.7
5226.02
5211.84
5195.51
5177.3
5157.44
5136.08
5113.29
5089.04
5063.21
5035.6
5005.96
4973.98
4939.33
4901.69
4860.78
4816.39
4768.38
4716.73
4661.55
4603.09
4541.72
4477.94
4412.36
4345.69
4278.69
4212.18
4146.96
4083.85
4023.6
3966.89
3914.32
3866.41
3823.55
3786.05
3754.08
3727.76
3707.08
3691.97
3682.3
3677.86
3678.42
3683.7
3693.38
3707.12
3724.54
3745.24
3768.79
3794.71
3822.51
3851.65
3881.56
3911.66
3941.36
3970.05
3997.13
4022.05
4044.3
4063.41
4079.02
4090.83
4098.64
4102.34
4101.88
4097.22
4088.26
4074.66
4055.5
4028.77
3990.23
3931.44
3835.95
3672.2
3379.93
2844.99
1854.01
313.374
637.905
15000
14999.7
14999.2
14998.4
14997.1
14995.2
14992.4
14988.4
14982.8
14975.1
14964.7
14950.8
14932.7
14909.2
14879.2
14841.4
14794.3
14736.2
14665.4
14580.1
14478.3
14358.3
14218
14055.9
13870.2
13659.6
13423
13159.8
12869.6
12552.5
12209.3
11840.9
11449.1
11036
10604.1
10156.6
9696.69
9228.12
8754.71
8280.42
7809.23
7345.04
6891.58
6452.34
6030.49
5628.84
5249.75
4895.16
4566.52
4264.81
3990.55
3743.85
3524.39
3331.5
3164.22
3021.31
2901.34
2802.73
2723.82
2662.88
2618.21
2588.12
2571.01
2565.38
2569.83
2583.11
2604.1
2631.82
2665.41
2704.17
2747.49
2794.88
2845.94
2900.34
2957.82
3018.16
3081.21
3146.8
3214.83
3285.16
3357.7
3432.33
3508.95
3587.41
3667.57
3749.26
3832.27
3916.38
4001.29
4086.68
4172.18
4257.37
4341.8
4424.97
4506.36
4585.44
4661.7
4734.6
4803.67
4868.46
4928.59
4983.73
5033.63
5078.11
5117.05
5150.41
5178.24
5200.62
5217.73
5229.77
5237.02
5239.78
5238.4
5233.26
5224.73
5213.21
5199.07
5182.64
5164.23
5144.07
5122.32
5099.06
5074.28
5047.87
5019.66
4989.42
4956.85
4921.64
4883.5
4842.15
4797.4
4749.1
4697.27
4641.99
4583.53
4522.23
4458.61
4393.26
4326.87
4260.2
4194.05
4129.23
4066.51
4006.65
3950.33
3898.14
3850.59
3808.08
3770.89
3739.23
3713.18
3692.76
3677.89
3668.44
3664.21
3664.96
3670.41
3680.23
3694.07
3711.56
3732.28
3755.78
3781.6
3809.22
3838.11
3867.69
3897.39
3926.6
3954.74
3981.21
4005.48
4027.05
4045.47
4060.39
4071.53
4078.73
4081.87
4080.93
4075.89
4066.64
4052.84
4033.62
4006.95
3968.66
3910.38
3815.84
3653.81
3364.98
2837.9
1864.5
313.191
639.935
15000
14999.7
14999.2
14998.4
14997.1
14995.2
14992.4
14988.4
14982.9
14975.2
14964.9
14951.1
14933.1
14909.7
14879.9
14842.3
14795.4
14737.6
14667.1
14582.2
14480.9
14361.3
14221.6
14060.1
13875
13665.1
13429.3
13166.8
12877.3
12560.9
12218.3
11850.4
11459.1
11046.3
10614.6
10167.1
9707.06
9238.15
8764.21
8289.19
7817.06
7351.73
6896.94
6456.2
6032.7
5629.25
5248.26
4891.67
4560.96
4257.15
3980.78
3731.97
3510.44
3315.55
3146.34
3001.6
2879.91
2779.71
2699.32
2637.05
2591.18
2560.03
2541.98
2535.52
2539.25
2551.9
2572.32
2599.53
2632.67
2670.98
2713.87
2760.82
2811.42
2865.34
2922.31
2982.12
3044.6
3109.61
3177.04
3246.78
3318.73
3392.8
3468.88
3546.87
3626.63
3708
3790.8
3874.79
3959.7
4045.22
4130.99
4216.59
4301.57
4385.43
4467.65
4547.7
4625.04
4699.14
4769.51
4835.68
4897.24
4953.86
5005.25
5051.21
5091.61
5126.4
5155.57
5179.22
5197.5
5210.6
5218.77
5222.33
5221.61
5216.98
5208.81
5197.5
5183.43
5166.92
5148.3
5127.81
5105.62
5081.82
5056.43
5029.36
5000.46
4969.52
4936.27
4900.42
4861.69
4819.83
4774.65
4726.04
4673.98
4618.6
4560.13
4498.93
4435.5
4370.42
4304.37
4238.09
4172.38
4108.01
4045.77
3986.39
3930.53
3878.8
3831.68
3789.57
3752.77
3721.46
3695.75
3675.64
3661.06
3651.87
3647.88
3648.85
3654.48
3664.45
3678.41
3695.96
3716.68
3740.12
3765.8
3793.19
3821.76
3850.94
3880.15
3908.78
3936.25
3962
3985.5
4006.26
4023.86
4037.97
4048.35
4054.83
4057.33
4055.84
4050.34
4040.76
4026.75
4007.45
3980.86
3942.82
3885.08
3791.5
3631.2
3345.3
2821.64
1843.82
312.723
641.926
15000
14999.7
14999.2
14998.4
14997.1
14995.2
14992.5
14988.5
14983
14975.4
14965.1
14951.4
14933.5
14910.3
14880.6
14843.2
14796.6
14739.1
14669
14584.5
14483.6
14364.6
14225.6
14064.7
13880.4
13671.2
13436.2
13174.5
12885.8
12570.2
12228.2
11861.1
11470.3
11057.9
10626.5
10179.1
9718.96
9249.75
8775.28
8299.5
7826.4
7359.86
6903.65
6461.28
6035.97
5630.54
5247.43
4888.61
4555.58
4249.4
3970.63
3719.43
3495.54
3298.34
3126.9
2980.04
2856.34
2754.26
2672.14
2608.29
2560.98
2528.54
2509.34
2501.87
2504.71
2516.57
2536.29
2562.87
2595.42
2633.18
2675.53
2721.94
2772
2825.34
2881.71
2940.89
3002.72
3067.05
3133.78
3202.82
3274.08
3347.49
3422.96
3500.39
3579.66
3660.63
3743.13
3826.95
3911.83
3997.45
4083.48
4169.49
4255.04
4339.63
4422.75
4503.84
4582.37
4657.79
4729.59
4797.29
4860.46
4918.73
4971.8
5019.45
5061.51
5097.91
5128.63
5153.74
5173.37
5187.69
5196.96
5201.46
5201.53
5197.51
5189.79
5178.76
5164.8
5148.24
5129.42
5108.58
5085.91
5061.53
5035.47
5007.67
4978
4946.28
4912.27
4875.7
4836.31
4793.88
4748.22
4699.25
4646.95
4591.45
4532.98
4471.9
4408.68
4343.92
4278.26
4212.44
4147.23
4083.4
4021.71
3962.88
3907.57
3856.36
3809.74
3768.11
3731.75
3700.86
3675.53
3655.77
3641.52
3632.63
3628.92
3630.12
3635.95
3646.08
3660.15
3677.75
3698.45
3721.8
3747.29
3774.41
3802.6
3831.29
3859.91
3887.86
3914.57
3939.49
3962.09
3981.93
3998.6
4011.81
4021.31
4026.98
4028.76
4026.65
4020.66
4010.7
3996.47
3977.08
3950.56
3912.81
3855.63
3763.04
3604.37
3320.83
2799.26
1818.48
312.114
638.92
15000
14999.7
14999.2
14998.4
14997.1
14995.3
14992.5
14988.6
14983.1
14975.5
14965.3
14951.7
14933.9
14910.8
14881.4
14844.2
14797.8
14740.6
14670.9
14586.8
14486.5
14368.1
14229.7
14069.5
13886
13677.6
13443.5
13182.7
12894.8
12580.1
12239
11872.6
11482.4
11070.6
10639.6
10192.3
9732.19
9262.74
8787.8
8311.29
7837.21
7369.44
6911.76
6467.69
6040.45
5632.91
5247.52
4886.28
4550.73
4241.95
3960.54
3706.68
3480.16
3280.38
3106.43
2957.16
2831.18
2726.95
2642.83
2577.14
2528.15
2494.19
2473.63
2464.95
2466.7
2477.6
2496.47
2522.27
2554.1
2591.18
2632.88
2678.65
2728.04
2780.72
2836.39
2894.84
2955.91
3019.47
3085.41
3153.65
3224.13
3296.78
3371.53
3448.3
3527
3607.49
3689.62
3773.2
3857.97
3943.65
4029.89
4116.3
4202.41
4287.76
4371.8
4453.99
4533.78
4610.6
4683.94
4753.29
4818.21
4878.29
4933.21
4982.71
5026.61
5064.81
5097.27
5124.02
5145.18
5160.9
5171.43
5177.02
5178
5174.72
5167.55
5156.88
5143.08
5126.52
5107.51
5086.32
5063.17
5038.17
5011.4
4982.81
4952.32
4919.76
4884.92
4847.56
4807.45
4764.4
4718.22
4668.85
4616.29
4560.66
4502.2
4441.25
4378.29
4313.88
4248.67
4183.37
4118.73
4055.5
3994.43
3936.22
3881.53
3830.92
3784.87
3743.78
3707.92
3677.5
3652.61
3633.25
3619.36
3610.81
3607.39
3608.84
3614.89
3625.18
3639.35
3656.98
3677.64
3700.85
3726.1
3752.88
3780.62
3808.75
3836.69
3863.86
3889.7
3913.67
3935.28
3954.09
3969.74
3981.93
3990.48
3995.26
3996.25
3993.47
3986.94
3976.58
3962.1
3942.62
3916.19
3878.75
3822.15
3730.56
3573.42
3291.87
2771.72
1788.52
311.622
636.108
15000
14999.7
14999.2
14998.4
14997.2
14995.3
14992.6
14988.6
14983.2
14975.7
14965.5
14952
14934.3
14911.4
14882.1
14845.1
14799
14742.1
14672.8
14589.2
14489.4
14371.5
14233.8
14074.4
13891.6
13684.2
13450.9
13191.1
12904.2
12590.4
12250.2
11884.7
11495.3
11084.1
10653.5
10206.6
9746.53
9276.93
8801.58
8324.42
7849.39
7380.42
6921.26
6475.45
6046.24
5636.51
5248.74
4884.95
4546.71
4235.15
3950.89
3694.17
3464.77
3262.16
3085.45
2933.51
2804.98
2698.34
2611.97
2544.17
2493.26
2457.54
2435.4
2425.29
2425.76
2435.51
2453.34
2478.2
2509.16
2545.44
2586.36
2631.36
2679.99
2731.88
2786.76
2844.39
2904.61
2967.29
3032.34
3099.69
3169.29
3241.08
3315.01
3391.03
3469.05
3548.96
3630.63
3713.88
3798.48
3884.15
3970.55
4057.3
4143.96
4230.03
4315
4398.31
4479.39
4557.68
4632.64
4703.73
4770.5
4832.51
4889.42
4940.93
4986.84
5027
5061.37
5089.94
5112.8
5130.1
5142.03
5148.86
5150.9
5148.48
5141.97
5131.76
5118.21
5101.69
5082.53
5061.02
5037.38
5011.77
4984.26
4954.85
4923.49
4890.04
4854.31
4816.12
4775.25
4731.52
4684.79
4635
4582.17
4526.41
4467.96
4407.17
4344.49
4280.48
4215.76
4151.03
4087.02
4024.46
3964.08
3906.57
3852.56
3802.61
3757.2
3716.71
3681.42
3651.52
3627.11
3608.19
3594.7
3586.5
3583.39
3585.12
3591.38
3601.82
3616.07
3633.71
3654.28
3677.31
3702.28
3728.64
3755.85
3783.33
3810.51
3836.81
3861.69
3884.61
3905.13
3922.81
3937.33
3948.43
3955.94
3959.77
3959.92
3956.42
3949.31
3938.54
3923.79
3904.23
3877.9
3840.77
3784.79
3694.2
3538.62
3259.25
2742.21
1768.08
311.356
634.414
15000
14999.7
14999.2
14998.4
14997.2
14995.3
14992.6
14988.7
14983.3
14975.8
14965.7
14952.3
14934.7
14911.9
14882.8
14846
14800.1
14743.5
14674.6
14591.4
14492.1
14374.9
14237.8
14079.1
13897.2
13690.7
13458.4
13199.5
12913.6
12600.9
12261.7
11897
11508.5
11098
10668.1
10221.5
9761.67
9292.03
8816.39
8338.66
7862.78
7392.66
6932.07
6484.56
6053.38
5641.43
5251.21
4884.79
4543.77
4229.3
3942.04
3682.27
3449.82
3244.16
3064.47
2909.62
2778.3
2669
2580.12
2509.98
2456.9
2419.19
2395.22
2383.46
2382.44
2390.84
2407.45
2431.19
2461.13
2496.44
2536.44
2580.55
2628.29
2679.3
2733.27
2789.97
2849.24
2910.95
2975.02
3041.38
3109.99
3180.83
3253.85
3329.01
3406.25
3485.48
3566.6
3649.42
3733.75
3819.32
3905.81
3992.84
4079.97
4166.74
4252.61
4337.02
4419.4
4499.18
4575.8
4648.7
4717.39
4781.44
4840.44
4894.09
4942.14
4984.43
5020.86
5051.41
5076.14
5095.17
5108.68
5116.91
5120.15
5118.73
5113
5103.35
5090.14
5073.74
5054.49
5032.7
5008.6
4982.37
4954.12
4923.88
4891.62
4857.25
4820.61
4781.55
4739.88
4695.45
4648.14
4597.91
4544.79
4488.9
4430.48
4369.86
4307.49
4243.91
4179.73
4115.63
4052.3
3990.47
3930.84
3874.09
3820.83
3771.62
3726.9
3687.07
3652.39
3623.06
3599.17
3580.73
3567.67
3559.85
3557.06
3559.06
3565.52
3576.11
3590.42
3608.03
3628.48
3651.27
3675.88
3701.77
3728.37
3755.12
3781.45
3806.78
3830.59
3852.38
3871.71
3888.18
3901.49
3911.42
3917.83
3920.66
3919.92
3915.67
3907.96
3896.75
3881.74
3862.09
3835.87
3799.08
3743.72
3654.2
3500.36
3224.23
2715.16
1762.44
311.149
634.921
15000
14999.7
14999.2
14998.4
14997.2
14995.3
14992.6
14988.8
14983.4
14975.9
14965.9
14952.6
14935
14912.3
14883.4
14846.8
14801.1
14744.9
14676.2
14593.5
14494.7
14378
14241.6
14083.7
13902.6
13696.9
13465.5
13207.7
12922.9
12611.1
12273
11909.4
11521.8
11112.1
10682.9
10236.8
9777.3
9307.75
8831.94
8353.76
7877.15
7405.99
6944.07
6494.92
6061.81
5647.67
5255.02
4885.95
4542.1
4224.63
3934.28
3671.33
3435.67
3226.81
3043.94
2885.99
2751.66
2639.48
2547.85
2475.14
2419.65
2379.71
2353.69
2340.05
2337.32
2344.16
2359.35
2381.79
2410.53
2444.71
2483.64
2526.72
2573.45
2623.45
2676.4
2732.07
2790.29
2850.93
2913.92
2979.2
3046.73
3116.51
3188.51
3262.71
3339.07
3417.52
3497.96
3580.26
3664.21
3749.58
3836.05
3923.27
4010.81
4098.2
4184.91
4270.38
4354.05
4435.31
4513.59
4588.33
4659
4725.15
4786.34
4842.23
4892.54
4937.08
4975.72
5008.4
5035.16
5056.08
5071.33
5081.12
5085.71
5085.43
5080.61
5071.64
5058.87
5042.68
5023.42
5001.41
4976.89
4950.08
4921.1
4890.04
4856.88
4821.57
4784
4744.05
4701.56
4656.41
4608.51
4557.83
4504.42
4448.4
4390.01
4329.58
4267.55
4204.44
4140.84
4077.4
4014.81
3953.76
3894.95
3839.01
3786.56
3738.13
3694.17
3655.04
3621.03
3592.31
3568.98
3551.04
3538.43
3531
3528.55
3530.81
3537.47
3548.17
3562.52
3580.06
3600.33
3622.83
3647.02
3672.36
3698.28
3724.21
3749.59
3773.87
3796.53
3817.1
3835.16
3850.34
3862.38
3871.08
3876.34
3878.11
3876.45
3871.42
3863.1
3851.44
3836.16
3816.42
3790.32
3753.87
3699.18
3610.79
3458.92
3186.42
2684.59
1750.3
310.913
632.218
15000
14999.7
14999.2
14998.4
14997.2
14995.4
14992.7
14988.8
14983.4
14976
14966.1
14952.8
14935.3
14912.7
14883.9
14847.5
14802
14746
14677.7
14595.3
14497
14380.9
14245.1
14087.8
13907.5
13702.7
13472.3
13215.4
12931.6
12621
12283.9
11921.3
11534.7
11126
10697.5
10252.2
9793.07
9323.74
8847.91
8369.43
7892.23
7420.18
6957.04
6506.37
6071.44
5655.19
5260.17
4888.48
4541.79
4221.33
3927.83
3661.64
3422.67
3210.48
3024.3
2863.08
2725.56
2610.29
2515.72
2440.21
2382.09
2339.69
2311.39
2295.65
2290.99
2296.06
2309.62
2330.57
2357.92
2390.81
2428.51
2470.41
2515.99
2564.85
2616.67
2671.2
2728.27
2787.75
2849.55
2913.65
2980.01
3048.63
3119.51
3192.65
3268.01
3345.57
3425.23
3506.87
3590.33
3675.38
3761.73
3849.03
3936.87
4024.79
4112.26
4198.73
4283.61
4366.32
4446.24
4522.82
4595.5
4663.78
4727.22
4785.43
4838.1
4885.01
4925.98
4960.94
4989.87
5012.84
5029.98
5041.47
5047.58
5048.58
5044.83
5036.66
5024.45
5008.58
4989.41
4967.24
4942.37
4915.03
4885.37
4853.5
4819.46
4783.22
4744.73
4703.87
4660.56
4614.68
4566.19
4515.06
4461.35
4405.2
4346.86
4286.64
4224.96
4162.35
4099.36
4036.63
3974.82
3914.6
3856.64
3801.58
3749.98
3702.39
3659.22
3620.85
3587.54
3559.47
3536.72
3519.31
3507.17
3500.14
3498.01
3500.53
3507.37
3518.17
3532.5
3549.93
3569.97
3592.11
3615.82
3640.53
3665.68
3690.72
3715.07
3738.22
3759.65
3778.92
3795.64
3809.47
3820.18
3827.6
3831.66
3832.36
3829.75
3823.92
3814.97
3802.86
3787.3
3767.47
3741.48
3705.39
3651.38
3564.2
3414.47
3145.96
2651.39
1725.48
310.554
627.894
15000
14999.7
14999.2
14998.4
14997.2
14995.4
14992.7
14988.9
14983.5
14976.1
14966.2
14952.9
14935.5
14913
14884.3
14848
14802.8
14747
14679
14596.9
14499
14383.3
14248.1
14091.5
13911.9
13707.9
13478.4
13222.5
12939.7
12630.2
12294.2
11932.7
11547.1
11139.4
10711.8
10267.2
9808.65
9339.69
8863.98
8385.36
7907.73
7434.94
6970.76
6518.72
6082.12
5663.89
5266.59
4892.37
4542.92
4219.49
3922.86
3653.41
3411.09
3195.49
3005.9
2841.29
2700.44
2581.93
2484.24
2405.73
2344.77
2299.7
2268.91
2250.84
2244.03
2247.12
2258.85
2278.1
2303.87
2335.28
2371.59
2412.15
2456.45
2504.04
2554.61
2607.89
2663.69
2721.9
2782.44
2845.25
2910.35
2977.72
3047.38
3119.34
3193.61
3270.15
3348.9
3429.78
3512.62
3597.23
3683.32
3770.58
3858.6
3946.93
4035.05
4122.42
4208.44
4292.53
4374.06
4452.44
4527.12
4597.55
4663.26
4723.85
4778.96
4828.32
4871.74
4909.09
4940.34
4965.5
4984.68
4998.04
5005.81
5008.26
5005.7
4998.49
4986.98
4971.55
4952.56
4930.34
4905.21
4877.4
4847.11
4814.49
4779.6
4742.46
4703.05
4661.31
4617.18
4570.58
4521.49
4469.9
4415.91
4359.65
4301.35
4241.35
4180.06
4117.96
4055.61
3993.62
3932.62
3873.27
3816.21
3762.05
3711.36
3664.64
3622.31
3584.73
3552.15
3524.75
3502.62
3485.75
3474.08
3467.45
3465.65
3468.41
3475.4
3486.25
3500.54
3517.8
3537.56
3559.27
3582.42
3606.43
3630.74
3654.8
3678.05
3699.99
3720.12
3738.02
3753.34
3765.77
3775.1
3781.21
3784.05
3783.64
3780.06
3773.43
3763.84
3751.27
3735.43
3715.51
3689.63
3653.89
3600.58
3514.64
3367.11
3102.47
2614.43
1700.47
310.211
625.021
15000
14999.7
14999.2
14998.4
14997.2
14995.4
14992.7
14988.9
14983.5
14976.2
14966.2
14953
14935.7
14913.3
14884.6
14848.4
14803.3
14747.7
14680
14598.2
14500.6
14385.4
14250.6
14094.6
13915.7
13712.5
13483.8
13228.8
12947
12638.5
12303.6
11943.2
11558.7
11152
10725.4
10281.6
9823.75
9355.28
8879.85
8401.25
7923.37
7450.03
6984.98
6531.77
6093.66
5673.61
5274.2
4897.58
4545.48
4219.16
3919.47
3646.79
3401.12
3182.11
2989.05
2820.98
2676.69
2554.82
2453.85
2372.2
2308.22
2260.29
2226.8
2206.2
2197.03
2197.91
2207.6
2224.95
2248.95
2278.71
2313.45
2352.51
2395.37
2441.56
2490.75
2542.66
2597.1
2653.94
2713.1
2774.55
2838.28
2904.3
2972.64
3043.33
3116.39
3191.8
3269.53
3349.51
3431.6
3515.63
3601.33
3688.41
3776.47
3865.08
3953.73
4041.88
4128.94
4214.31
4297.37
4377.51
4454.14
4526.71
4594.72
4657.71
4715.3
4767.2
4813.15
4853.01
4886.69
4914.18
4935.55
4950.93
4960.52
4964.56
4963.36
4957.25
4946.58
4931.72
4913.04
4890.89
4865.58
4837.4
4806.56
4773.24
4737.56
4699.56
4659.27
4616.68
4571.74
4524.43
4474.75
4422.73
4368.45
4312.08
4253.85
4194.08
4133.18
4071.61
4009.92
3948.69
3888.54
3830.08
3773.95
3720.73
3670.97
3625.15
3583.69
3546.92
3515.1
3488.4
3466.89
3450.57
3439.37
3433.13
3431.65
3434.63
3441.74
3452.6
3466.79
3483.84
3503.24
3524.47
3546.98
3570.21
3593.61
3616.62
3638.7
3659.35
3678.12
3694.61
3708.47
3719.46
3727.39
3732.16
3733.75
3732.22
3727.67
3720.23
3710
3696.96
3680.84
3660.81
3635.03
3599.64
3547.02
3462.34
3317.01
3056.08
2573.37
1662.03
309.883
622.998
15000
14999.7
14999.2
14998.4
14997.2
14995.4
14992.7
14988.9
14983.5
14976.2
14966.3
14953.1
14935.8
14913.4
14884.8
14848.7
14803.8
14748.3
14680.7
14599.2
14501.9
14387
14252.7
14097.2
13918.9
13716.3
13488.4
13234.3
12953.5
12645.9
12312.1
11952.8
11569.4
11163.7
10738.1
10295.2
9838.13
9370.28
8895.26
8416.85
7938.89
7465.19
6999.48
6545.28
6105.87
5684.2
5282.86
4904.01
4549.41
4220.36
3917.7
3641.88
3392.93
3170.52
2974
2802.44
2654.67
2529.34
2425
2340.05
2272.91
2221.95
2185.58
2162.26
2150.52
2149.01
2156.45
2171.71
2193.74
2221.65
2254.64
2292.05
2333.31
2377.96
2425.63
2476.06
2529.02
2584.39
2642.09
2702.07
2764.34
2828.92
2895.85
2965.16
3036.9
3111.07
3187.66
3266.62
3347.83
3431.13
3516.3
3603.04
3691
3779.74
3868.78
3957.58
4045.56
4132.1
4216.59
4298.41
4376.94
4451.6
4521.88
4587.28
4647.39
4701.87
4750.43
4792.88
4829.1
4859.05
4882.74
4900.29
4911.85
4917.64
4917.95
4913.09
4903.4
4889.26
4871.03
4849.07
4823.71
4795.25
4763.96
4730.03
4693.62
4654.82
4613.7
4570.28
4524.58
4476.59
4426.34
4373.88
4319.34
4262.87
4204.71
4145.19
4084.68
4023.66
3962.64
3902.18
3842.89
3785.35
3730.16
3677.9
3629.08
3584.19
3543.61
3507.68
3476.63
3450.63
3429.75
3413.98
3403.25
3397.39
3396.19
3399.36
3406.56
3417.39
3431.43
3448.2
3467.18
3487.86
3509.67
3532.05
3554.46
3576.35
3597.19
3616.51
3633.86
3648.88
3661.27
3670.78
3677.28
3680.69
3681.04
3678.39
3672.87
3664.61
3653.73
3640.22
3623.8
3603.66
3577.96
3542.9
3490.96
3407.53
3264.45
3007.65
2533.74
1646.29
309.742
617.47
15000
14999.7
14999.2
14998.4
14997.2
14995.4
14992.7
14988.9
14983.6
14976.2
14966.3
14953.1
14935.9
14913.5
14884.9
14848.9
14804
14748.7
14681.2
14599.9
14502.9
14388.3
14254.3
14099.2
13921.4
13719.5
13492.3
13238.9
12959
12652.4
12319.6
11961.3
11579
11174.4
10749.8
10307.9
9851.65
9384.52
8910.04
8431.96
7954.09
7480.21
7014.03
6559.06
6118.56
5695.49
5292.43
4911.57
4554.66
4223.03
3917.57
3638.74
3386.6
3160.88
2960.95
2785.91
2634.64
2505.82
2398.02
2309.7
2239.27
2185.14
2145.73
2119.52
2105.04
2100.94
2105.95
2118.91
2138.78
2164.66
2195.73
2231.31
2270.82
2313.78
2359.81
2408.63
2460
2513.8
2569.93
2628.36
2689.08
2752.12
2817.54
2885.39
2955.71
3028.53
3103.86
3181.66
3261.85
3344.29
3428.77
3515.03
3602.73
3691.45
3780.72
3870.02
3958.77
4046.36
4132.17
4215.55
4295.9
4372.6
4445.11
4512.9
4575.54
4632.62
4683.84
4728.96
4767.82
4800.32
4826.47
4846.31
4859.98
4867.68
4869.65
4866.2
4857.66
4844.38
4826.74
4805.1
4779.82
4751.21
4719.56
4685.12
4648.06
4608.54
4566.65
4522.46
4476.02
4427.38
4376.59
4323.73
4268.93
4212.37
4154.29
4095.01
4034.91
3974.44
3914.09
3854.42
3795.98
3739.36
3685.13
3633.84
3585.98
3542.02
3502.34
3467.24
3436.97
3411.67
3391.41
3376.19
3365.91
3360.41
3359.47
3362.79
3370.03
3380.79
3394.62
3411.05
3429.55
3449.6
3470.64
3492.12
3513.47
3534.17
3553.72
3571.65
3587.55
3601.07
3611.94
3619.96
3625.02
3627.08
3626.18
3622.41
3615.92
3606.85
3595.33
3581.34
3564.61
3544.33
3518.68
3483.93
3432.66
3350.49
3209.76
2957.43
2492.23
1620.8
309.609
610.527
15000
14999.7
14999.2
14998.4
14997.2
14995.4
14992.7
14988.9
14983.5
14976.2
14966.3
14953.1
14935.9
14913.5
14885
14849
14804.2
14748.9
14681.6
14600.4
14503.6
14389.2
14255.6
14100.9
13923.5
13722.1
13495.5
13242.9
12963.7
12658
12326.1
11968.9
11587.6
11184
10760.5
10319.5
9864.25
9397.91
8924.08
8446.46
7968.82
7494.95
7028.49
6572.95
6131.59
5707.34
5302.78
4920.12
4561.12
4227.13
3919.05
3637.37
3382.2
3153.28
2950.02
2771.57
2616.82
2484.52
2373.25
2281.49
2207.69
2150.28
2107.7
2078.45
2061.07
2054.2
2056.59
2067.07
2084.61
2108.28
2137.25
2170.83
2208.43
2249.56
2293.81
2340.89
2390.57
2442.69
2497.16
2553.93
2613.02
2674.45
2738.27
2804.55
2873.35
2944.71
3018.67
3095.19
3174.23
3255.67
3339.32
3424.94
3512.21
3600.75
3690.09
3779.73
3869.1
3957.59
4044.58
4129.42
4211.47
4290.13
4364.81
4434.96
4500.09
4559.8
4613.71
4661.55
4703.11
4738.27
4766.96
4789.22
4805.15
4814.89
4818.68
4816.79
4809.54
4797.28
4780.38
4759.21
4734.14
4705.51
4673.63
4638.77
4601.17
4561
4518.41
4473.52
4426.4
4377.15
4325.85
4272.6
4217.56
4160.92
4102.92
4043.89
3984.2
3924.27
3864.6
3805.7
3748.13
3692.42
3639.15
3588.82
3541.92
3498.89
3460.09
3425.83
3396.33
3371.73
3352.08
3337.38
3327.53
3322.37
3321.65
3325.08
3332.32
3342.95
3356.52
3372.54
3390.5
3409.86
3430.06
3450.55
3470.8
3490.26
3508.47
3524.97
3539.38
3551.38
3560.72
3567.25
3570.87
3571.58
3569.43
3564.55
3557.1
3547.22
3535.05
3520.57
3503.51
3483.07
3457.46
3422.97
3372.34
3291.44
3153.12
2905.41
2448.95
1593.59
309.538
605.768
15000
14999.7
14999.2
14998.4
14997.2
14995.4
14992.7
14988.9
14983.5
14976.2
14966.3
14953.1
14935.9
14913.5
14885
14849.1
14804.3
14749.1
14681.8
14600.7
14504.1
14389.9
14256.5
14102.1
13925.2
13724.3
13498.2
13246.2
12967.8
12662.9
12331.9
11975.6
11595.3
11192.8
10770.2
10330.3
9875.95
9410.46
8937.35
8460.3
7983.04
7509.31
7042.76
6586.85
6144.83
5719.62
5313.8
4929.58
4568.72
4232.58
3922.09
3637.76
3379.73
3147.77
2941.31
2759.54
2601.4
2465.65
2350.91
2255.69
2178.48
2117.72
2071.88
2039.46
2019.04
2009.26
2008.86
2016.7
2031.72
2053
2079.71
2111.13
2146.67
2185.81
2228.15
2273.38
2321.24
2371.57
2424.28
2479.32
2536.68
2596.41
2658.55
2723.18
2790.36
2860.17
2932.64
3007.78
3085.54
3165.84
3248.51
3333.34
3420.03
3508.22
3597.47
3687.28
3777.1
3866.33
3954.34
4040.5
4124.15
4204.66
4281.42
4353.86
4421.46
4483.77
4540.37
4590.96
4635.28
4673.16
4704.51
4729.29
4747.59
4759.51
4765.25
4765.08
4759.27
4748.19
4732.18
4711.63
4686.91
4658.38
4626.4
4591.25
4553.2
4512.48
4469.28
4423.74
4376.01
4326.19
4274.41
4220.8
4165.54
4108.83
4050.93
3992.14
3932.85
3873.46
3814.45
3756.32
3699.59
3644.79
3592.45
3543.08
3497.13
3455.02
3417.1
3383.66
3354.91
3330.98
3311.93
3297.73
3288.28
3283.41
3282.88
3286.38
3293.56
3304
3317.24
3332.8
3350.16
3368.76
3388.06
3407.52
3426.59
3444.77
3461.59
3476.63
3489.53
3500
3507.81
3512.85
3515.04
3514.41
3511.03
3505.06
3496.65
3485.97
3473.15
3458.17
3440.77
3420.14
3394.51
3360.26
3310.23
3230.59
3094.76
2851.94
2405.28
1570.4
309.58
602.964
15000
14999.7
14999.2
14998.4
14997.2
14995.4
14992.7
14988.9
14983.5
14976.2
14966.3
14953.1
14935.9
14913.5
14885
14849.1
14804.3
14749.2
14682
14601
14504.5
14390.5
14257.3
14103.2
13926.6
13726.1
13500.6
13249.2
12971.4
12667.3
12337.1
11981.7
11602.3
11200.8
10779.2
10340.3
9886.88
9422.28
8949.95
8473.54
7996.75
7523.3
7056.8
6600.7
6158.21
5732.26
5325.4
4939.84
4577.35
4239.3
3926.63
3639.88
3379.18
3144.35
2934.86
2749.91
2588.48
2449.36
2331.19
2232.54
2151.9
2087.75
2038.58
2002.91
1979.33
1966.51
1963.19
1968.23
1980.58
1999.31
2023.59
2052.7
2086.02
2123.03
2163.33
2206.57
2252.5
2300.95
2351.81
2405.02
2460.58
2518.52
2578.89
2641.79
2707.28
2775.44
2846.33
2919.97
2996.33
3075.36
3156.92
3240.8
3326.76
3414.43
3503.41
3593.22
3683.32
3773.12
3862.01
3949.33
4034.44
4116.67
4195.42
4270.06
4340.07
4404.93
4464.22
4517.57
4564.68
4605.33
4639.39
4666.8
4687.56
4701.78
4709.61
4711.28
4707.07
4697.3
4682.34
4662.55
4638.33
4610.05
4578.09
4542.76