<?xml version="1.0"?>
<VTKFile type="ImageData" version="0.1" byte_order="LittleEndian">
  <ImageData Origin="0 0 0" Spacing="1e-05 1e-05 1e-05" WholeExtent="0 191 0 191 0 0">
    <Piece Extent="0 191 0 191 0 0">
      <CellData Scalars="T">
        <DataArray type="Float32" Name="T" format="ascii" NumberOfComponents="1">
441.623
15000
14999.9
14999.8
14999.7
14999.4
14999
14998.4
14997.6
14996.4
14994.7
14992.5
14989.3
14985.2
14979.6
14972.4
14963
14950.9
14935.6
14916.3
14892.3
14862.6
14826.4
14782.4
14729.6
14666.6
14592.1
14504.8
14403.3
14286.2
14152.2
14000
13828.5
13636.7
13423.9
13189.5
12933.1
12654.9
12355.1
12034.5
11694
11334.9
10959
10568.2
10164.7
9751.24
9330.34
8904.89
8477.86
8052.21
7630.91
7216.84
6812.73
6421.16
6044.46
5684.71
5343.68
5022.85
4723.36
4446.05
4191.42
3959.67
3750.71
3564.2
3399.56
3256.01
3132.62
3028.3
2941.9
2872.19
2817.9
2777.78
2750.59
2735.13
2730.27
2734.93
2748.13
2768.97
2796.65
2830.43
2869.67
2913.81
2962.36
3014.89
3071.04
3130.47
3192.9
3258.08
3325.77
3395.76
3467.83
3541.79
3617.41
3694.47
3772.73
3851.94
3931.82
4012.07
4092.39
4172.41
4251.8
4330.16
4407.11
4482.27
4555.22
4625.6
4693.02
4757.13
4817.62
4874.18
4926.57
4974.59
5018.08
5056.93
5091.09
5120.54
5145.34
5165.57
5181.37
5192.89
5200.33
5203.92
5203.87
5200.43
5193.84
5184.3
5172.03
5157.19
5139.93
5120.35
5098.51
5074.44
5048.13
5019.53
4988.59
4955.23
4919.37
4880.95
4839.91
4796.25
4750
4701.26
4650.18
4596.99
4541.96
4485.45
4427.87
4369.68
4311.39
4253.52
4196.63
4141.25
4087.93
4037.17
3989.45
3945.17
3904.72
3868.39
3836.42
3809
3786.21
3768.1
3754.64
3745.75
3741.29
3741.06
3744.81
3752.27
3763.11
3776.97
3793.45
3812.14
3832.6
3854.35
3876.93
3899.84
3922.59
3944.67
3965.53
3984.56
4001.03
4013.89
4021.51
4021.04
4007.34
3970.71
3892.62
3737.38
3435.49
2849.16
1694.71
314.12
740.934
15000
14999.9
14999.8
14999.7
14999.4
14999
14998.4
14997.6
14996.4
14994.7
14992.5
14989.3
14985.2
14979.6
14972.4
14963
14950.9
14935.6
14916.4
14892.4
14862.7
14826.5
14782.6
14729.8
14666.8
14592.4
14505.1
14403.7
14286.7
14152.7
14000.6
13829.2
13637.5
13424.8
13190.4
12934.1
12656
12356.3
12035.7
11695.2
11336.2
10960.3
10569.5
10166.1
9752.55
9331.6
8906.08
8478.95
8053.18
7631.73
7217.49
6813.2
6421.41
6044.48
5684.48
5343.19
5022.08
4722.32
4444.72
4189.8
3957.76
3748.51
3561.72
3396.81
3253
3129.36
3024.8
2938.18
2868.26
2813.78
2773.48
2746.12
2730.51
2725.5
2730.03
2743.11
2763.84
2791.41
2825.08
2864.23
2908.28
2956.73
3009.18
3065.23
3124.57
3186.92
3252.01
3319.62
3389.53
3461.54
3535.42
3610.98
3687.99
3766.22
3845.4
3925.27
4005.53
4085.86
4165.93
4245.37
4323.8
4400.84
4476.1
4549.18
4619.7
4687.27
4751.55
4812.21
4868.96
4921.55
4969.77
5013.45
5052.5
5086.85
5116.49
5141.47
5161.87
5177.81
5189.47
5197.04
5200.74
5200.78
5197.42
5190.87
5181.37
5169.12
5154.28
5137
5117.39
5095.51
5071.38
5045.01
5016.35
4985.35
4951.92
4915.99
4877.5
4836.4
4792.69
4746.41
4697.64
4646.54
4593.33
4538.3
4481.8
4424.25
4366.09
4307.84
4250.02
4193.17
4137.86
4084.59
4033.89
3986.23
3942.01
3901.62
3865.35
3833.44
3806.06
3783.32
3765.26
3751.84
3742.98
3738.55
3738.33
3742.1
3749.57
3760.41
3774.26
3790.72
3809.38
3829.79
3851.5
3874.02
3896.86
3919.53
3941.53
3962.3
3981.25
3997.62
4010.4
4017.94
4017.44
4003.77
3967.38
3890.1
3737.44
3444.07
2888.18
1851.05
320.573
733.546
15000
14999.9
14999.8
14999.7
14999.4
14999
14998.4
14997.6
14996.4
14994.8
14992.5
14989.4
14985.2
14979.7
14972.4
14963
14951
14935.7
14916.5
14892.5
14862.9
14826.8
14782.9
14730.1
14667.3
14592.9
14505.8
14404.5
14287.6
14153.7
14001.8
13830.5
13639
13426.4
13192.2
12936.1
12658.1
12358.6
12038.1
11697.7
11338.8
10963
10572.2
10168.8
9755.17
9334.12
8908.46
8481.13
8055.12
7633.39
7218.81
6814.14
6421.94
6044.55
5684.06
5342.25
5020.6
4720.28
4442.11
4186.62
3954
3744.19
3556.84
3391.39
3247.05
3122.91
3017.88
2930.81
2860.47
2805.59
2764.93
2737.24
2721.32
2716.03
2720.29
2733.13
2753.63
2780.99
2814.46
2853.41
2897.27
2945.54
2997.8
3053.67
3112.84
3175.01
3239.93
3307.38
3377.13
3448.99
3522.75
3598.19
3675.1
3753.25
3832.38
3912.22
3992.49
4072.86
4152.99
4232.53
4311.11
4388.33
4463.8
4537.12
4607.91
4675.79
4740.4
4801.41
4858.53
4911.5
4960.1
5004.18
5043.62
5078.35
5108.37
5133.7
5154.43
5170.69
5182.63
5190.45
5194.36
5194.58
5191.36
5184.93
5175.5
5163.27
5148.44
5131.13
5111.46
5089.5
5065.27
5038.78
5010
4978.85
4945.29
4909.23
4870.61
4829.4
4785.6
4739.23
4690.4
4639.26
4586.03
4531.01
4474.53
4417.02
4358.92
4300.75
4243.02
4186.28
4131.07
4077.93
4027.35
3979.8
3935.71
3895.43
3859.28
3827.48
3800.2
3777.56
3759.58
3746.24
3737.45
3733.07
3732.9
3736.7
3744.17
3755.01
3768.83
3785.26
3803.86
3824.19
3845.79
3868.19
3890.9
3913.43
3935.25
3955.85
3974.61
3990.81
4003.41
4010.8
4010.2
3996.56
3960.48
3884.19
3734.17
3447.3
2906.02
1893.62
320.997
727.936
15000
14999.9
14999.8
14999.7
14999.4
14999
14998.5
14997.6
14996.4
14994.8
14992.5
14989.4
14985.2
14979.7
14972.5
14963.1
14951.1
14935.9
14916.7
14892.8
14863.2
14827.1
14783.3
14730.7
14667.9
14593.7
14506.7
14405.6
14288.8
14155.2
14003.5
13832.4
13641.2
13428.8
13194.9
12939
12661.3
12361.9
12041.7
11701.5
11342.6
10966.9
10576.2
10172.7
9759.06
9337.87
8912
8484.4
8058.04
7635.89
7220.82
6815.6
6422.78
6044.72
5683.51
5340.94
5018.49
4717.34
4438.33
4181.98
3948.51
3737.86
3549.68
3383.42
3238.3
3113.41
3007.67
2919.93
2848.95
2793.5
2752.29
2724.09
2707.71
2701.98
2705.85
2718.32
2738.48
2765.5
2798.67
2837.32
2880.89
2928.88
2980.87
3036.47
3095.37
3157.27
3221.94
3289.14
3358.66
3430.3
3503.85
3579.11
3655.87
3733.9
3812.95
3892.75
3973.02
4053.44
4133.67
4213.37
4292.15
4369.62
4445.4
4519.08
4590.27
4658.6
4723.69
4785.22
4842.88
4896.41
4945.6
4990.26
5030.28
5065.58
5096.15
5122.01
5143.24
5159.96
5172.32
5180.52
5184.75
5185.25
5182.24
5175.97
5166.65
5154.48
5139.65
5122.31
5102.56
5080.48
5056.1
5029.44
5000.47
4969.13
4935.36
4899.11
4860.31
4818.93
4774.98
4728.49
4679.57
4628.37
4575.12
4520.1
4463.67
4406.22
4348.21
4290.15
4232.56
4175.97
4120.93
4067.96
4017.56
3970.19
3926.28
3886.18
3850.2
3818.56
3791.44
3768.94
3751.09
3737.86
3729.17
3724.87
3724.76
3728.6
3736.09
3746.92
3760.71
3777.07
3795.58
3815.79
3837.25
3859.47
3881.97
3904.27
3925.85
3946.18
3964.67
3980.6
3992.93
4000.09
3999.32
3985.65
3949.81
3874.35
3726.33
3443.63
2909.13
1903.26
321.318
722.942
15000
14999.9
14999.8
14999.7
14999.4
14999
14998.5
14997.6
14996.4
14994.8
14992.5
14989.4
14985.3
14979.8
14972.6
14963.2
14951.3
14936
14916.9
14893.1
14863.6
14827.6
14783.9
14731.4
14668.8
14594.8
14508
14407
14290.5
14157.2
14005.7
13835
13644
13431.9
13198.3
12942.8
12665.3
12366.3
12046.3
11706.3
11347.7
10972
10581.4
10177.9
9764.17
9342.81
8916.69
8488.74
8061.94
7639.25
7223.56
6817.62
6424
6045.08
5682.92
5339.36
5015.87
4713.64
4433.53
4176.06
3941.47
3729.7
3540.43
3373.09
3226.95
3101.06
2994.38
2905.74
2833.93
2777.69
2735.75
2706.88
2689.86
2683.56
2686.89
2698.86
2718.55
2745.14
2777.88
2816.13
2859.31
2906.93
2958.54
3013.78
3072.32
3133.87
3198.19
3265.06
3334.26
3405.6
3478.88
3553.9
3630.45
3708.32
3787.25
3866.99
3947.25
4027.72
4108.08
4187.96
4266.99
4344.79
4420.97
4495.11
4566.82
4635.73
4701.45
4763.65
4822.02
4876.3
4926.23
4971.66
5012.44
5048.5
5079.79
5106.36
5128.25
5145.58
5158.51
5167.2
5171.86
5172.73
5170.02
5163.97
5154.8
5142.72
5127.9
5110.51
5090.66
5068.43
5043.87
5016.99
4987.77
4956.18
4922.16
4885.65
4846.61
4805.02
4760.88
4714.24
4665.2
4613.93
4560.64
4505.63
4449.24
4391.88
4334
4276.1
4218.68
4162.3
4107.47
4054.73
4004.57
3957.45
3913.78
3873.91
3838.15
3806.73
3779.82
3757.5
3739.82
3726.74
3718.18
3713.98
3713.95
3717.83
3725.35
3736.16
3749.9
3766.17
3784.56
3804.61
3825.86
3847.85
3870.08
3892.07
3913.33
3933.31
3951.44
3967
3978.98
3985.82
3984.8
3971.01
3935.31
3860.48
3714.04
3434.71
2907.31
1914.1
322.215
718.172
15000
14999.9
14999.8
14999.7
14999.4
14999
14998.5
14997.6
14996.5
14994.8
14992.5
14989.5
14985.3
14979.8
14972.7
14963.4
14951.4
14936.3
14917.2
14893.4
14864.1
14828.2
14784.6
14732.2
14669.8
14596
14509.4
14408.7
14292.5
14159.5
14008.3
13838
13647.3
13435.7
13202.5
12947.3
12670.3
12371.6
12051.9
11712.2
11353.8
10978.3
10587.7
10184.3
9770.46
9348.91
8922.48
8494.12
8066.8
7643.48
7227.04
6820.25
6425.68
6045.7
5682.42
5337.64
5012.89
4709.35
4427.88
4169.05
3933.08
3719.95
3529.32
3360.67
3213.24
3086.13
2978.27
2888.52
2815.65
2758.43
2715.57
2685.85
2668.04
2661.01
2663.66
2674.99
2694.09
2720.12
2752.33
2790.07
2832.76
2879.89
2931.03
2985.81
3043.89
3105
3168.89
3235.34
3304.14
3375.1
3448.03
3522.74
3599.02
3676.67
3755.45
3835.09
3915.33
3995.85
4076.34
4156.44
4235.77
4313.96
4390.6
4465.29
4537.63
4607.23
4673.72
4736.74
4795.98
4851.15
4902.01
4948.37
4990.09
5027.07
5059.27
5086.69
5109.41
5127.5
5141.12
5150.44
5155.65
5156.97
5154.64
5148.88
5139.91
5127.94
5113.16
5095.72
5075.76
5053.36
5028.58
5001.44
4971.93
4940.03
4905.7
4868.89
4829.56
4787.71
4743.34
4696.52
4647.34
4595.98
4542.65
4487.66
4431.33
4374.08
4316.36
4258.64
4201.46
4145.32
4090.77
4038.31
3988.45
3941.62
3898.25
3858.67
3823.19
3792.04
3765.37
3743.28
3725.81
3712.92
3704.51
3700.43
3700.49
3704.43
3711.97
3722.75
3736.43
3752.59
3770.81
3790.66
3811.66
3833.35
3855.24
3876.86
3897.7
3917.25
3934.93
3950.04
3961.58
3968.01
3966.66
3952.67
3917.02
3842.71
3697.67
3421.47
2901.09
1931.56
322.922
714.17
15000
14999.9
14999.8
14999.7
14999.4
14999
14998.5
14997.6
14996.5
14994.8
14992.6
14989.5
14985.4
14979.9
14972.8
14963.5
14951.6
14936.5
14917.5
14893.8
14864.6
14828.8
14785.4
14733.2
14671
14597.4
14511.1
14410.7
14294.8
14162.1
14011.3
13841.4
13651.2
13440
13207.2
12952.5
12675.9
12377.6
12058.3
11719
11360.9
10985.6
10595.2
10191.7
9777.82
9356.08
8929.33
8500.53
8072.62
7648.59
7231.3
6823.54
6427.88
6046.7
5682.11
5335.94
5009.72
4704.65
4421.62
4161.18
3923.6
3708.86
3516.64
3346.43
3197.49
3068.91
2959.65
2868.57
2794.45
2736.04
2692.08
2661.32
2642.56
2634.63
2636.45
2647.01
2665.38
2690.72
2722.28
2759.4
2801.48
2848.03
2898.6
2952.81
3010.35
3070.92
3134.28
3200.21
3268.52
3339.02
3411.53
3485.86
3561.81
3639.19
3717.75
3797.27
3877.46
3958.02
4038.64
4118.97
4198.63
4277.24
4354.41
4429.73
4502.78
4573.19
4640.55
4704.52
4764.76
4820.98
4872.92
4920.38
4963.2
5001.26
5034.53
5062.98
5086.66
5105.66
5120.11
5130.18
5136.05
5137.93
5136.06
5130.65
5121.93
5110.12
5095.39
5077.93
5057.85
5035.26
5010.24
4982.8
4952.97
4920.72
4886.04
4848.88
4809.22
4767.07
4722.44
4675.4
4626.07
4574.61
4521.24
4466.27
4410.02
4352.9
4295.36
4237.88
4180.96
4125.12
4070.89
4018.78
3969.26
3922.79
3879.76
3840.53
3805.38
3774.54
3748.17
3726.35
3709.12
3696.44
3688.21
3684.28
3684.44
3688.44
3695.99
3706.74
3720.32
3736.34
3754.37
3773.97
3794.66
3815.99
3837.48
3858.64
3879
3898.03
3915.18
3929.75
3940.77
3946.72
3944.96
3930.7
3895.03
3821.18
3677.55
3404.67
2891.08
1927.6
323.405
709.523
15000
14999.9
14999.8
14999.7
14999.4
14999
14998.5
14997.7
14996.5
14994.8
14992.6
14989.5
14985.4
14980
14972.9
14963.7
14951.8
14936.8
14917.8
14894.2
14865.1
14829.5
14786.2
14734.2
14672.2
14598.9
14512.9
14412.8
14297.3
14165
14014.6
13845.1
13655.4
13444.7
13212.5
12958.3
12682.2
12384.4
12065.5
11726.6
11368.8
10993.8
10603.5
10200.2
9786.17
9364.24
8937.17
8507.89
8079.37
7654.57
7236.36
6827.53
6430.67
6048.16
5682.12
5334.4
5006.54
4699.75
4414.95
4152.71
3913.3
3696.73
3502.7
3330.7
3180.02
3049.76
2938.88
2846.25
2770.67
2710.88
2665.62
2633.66
2613.76
2604.78
2605.62
2615.25
2632.76
2657.28
2688.07
2724.44
2765.81
2811.66
2861.55
2915.1
2971.98
3031.91
3094.65
3159.98
3227.71
3297.67
3369.67
3443.53
3519.09
3596.12
3674.43
3753.77
3833.87
3914.45
3995.19
4075.74
4155.75
4234.82
4312.56
4388.56
4462.4
4533.69
4602.04
4667.06
4728.43
4785.82
4838.98
4887.69
4931.75
4971.06
5005.54
5035.16
5059.96
5080.02
5095.44
5106.37
5113.01
5115.56
5114.23
5109.26
5100.85
5089.24
5074.6
5057.12
5036.94
5014.16
4988.87
4961.13
4930.94
4898.31
4863.23
4825.69
4785.67
4743.19
4698.27
4651
4601.49
4549.92
4496.51
4441.56
4385.41
4328.45
4271.12
4213.91
4157.29
4101.8
4047.95
3996.22
3947.11
3901.04
3858.42
3819.58
3784.81
3754.33
3728.29
3706.78
3689.83
3677.38
3669.35
3665.58
3665.85
3669.91
3677.46
3688.16
3701.64
3717.49
3735.28
3754.58
3774.91
3795.82
3816.83
3837.47
3857.26
3875.7
3892.24
3906.19
3916.61
3922
3919.75
3905.16
3869.43
3796
3653.66
3383.44
2873.43
1907.63
322.524
708.515
15000
14999.9
14999.8
14999.7
14999.4
14999
14998.5
14997.7
14996.5
14994.9
14992.6
14989.6
14985.5
14980.1
14973
14963.8
14952
14937
14918.2
14894.7
14865.7
14830.2
14787.1
14735.3
14673.5
14600.5
14514.7
14415
14299.9
14168
14018.1
13849.1
13659.9
13449.8
13218.1
12964.5
12688.9
12391.7
12073.3
11734.8
11377.4
11002.7
10612.7
10209.4
9795.39
9373.29
8945.91
8516.16
8087
7661.39
7242.22
6832.27
6434.12
6050.18
5682.58
5333.18
5003.52
4694.87
4408.12
4143.89
3902.47
3683.86
3487.82
3313.83
3161.2
3029.04
2916.34
2821.96
2744.71
2683.35
2636.61
2603.25
2582.04
2571.84
2571.53
2580.1
2596.6
2620.17
2650.05
2685.55
2726.08
2771.12
2820.22
2873
2929.12
2988.31
3050.33
3114.97
3182.03
3251.35
3322.75
3396.08
3471.16
3547.79
3625.77
3704.87
3784.84
3865.4
3946.23
4027
4107.35
4186.89
4265.23
4341.94
4416.63
4488.87
4558.27
4624.45
4687.04
4745.73
4800.24
4850.31
4895.76
4936.45
4972.29
5003.23
5029.29
5050.53
5067.04
5078.98
5086.5
5089.82
5089.13
5084.66
5076.64
5065.28
5050.77
5033.31
5013.03
4990.08
4964.53
4936.45
4905.89
4872.86
4837.37
4799.42
4759.01
4716.17
4670.94
4623.42
4573.73
4522.04
4468.6
4413.69
4357.64
4300.86
4243.78
4186.86
4130.6
4075.49
4022.05
3970.77
3922.11
3876.5
3834.33
3795.93
3761.59
3731.51
3705.84
3684.67
3668.02
3655.83
3648.02
3644.41
3644.79
3648.91
3656.46
3667.09
3680.43
3696.07
3713.59
3732.53
3752.45
3772.88
3793.35
3813.4
3832.55
3850.32
3866.17
3879.43
3889.17
3893.93
3891.14
3876.16
3840.32
3767.26
3626.08
3358.16
2851.72
1890.58
321.418
714.658
15000
14999.9
14999.8
14999.7
14999.4
14999.1
14998.5
14997.7
14996.5
14994.9
14992.7
14989.6
14985.6
14980.2
14973.1
14964
14952.2
14937.3
14918.5
14895.1
14866.3
14830.9
14788
14736.4
14674.8
14602.1
14516.7
14417.3
14302.5
14171.1
14021.7
13853.2
13664.6
13455.1
13223.9
12970.9
12696
12399.3
12081.5
11743.5
11386.6
11012.3
10622.4
10219.3
9805.33
9383.1
8955.43
8525.23
8095.44
7669.02
7248.87
6837.75
6438.27
6052.84
5683.59
5332.4
5000.85
4690.19
4401.37
4134.99
3891.39
3670.58
3472.33
3296.17
3141.39
3007.15
2892.42
2796.1
2717
2653.87
2605.46
2570.52
2547.84
2536.24
2534.63
2541.97
2557.31
2579.78
2608.62
2643.13
2682.7
2726.81
2775
2826.9
2882.16
2940.5
3001.7
3065.54
3131.83
3200.42
3271.15
3343.85
3418.37
3494.51
3572.1
3650.91
3730.69
3811.17
3892.06
3973.02
4053.69
4133.69
4212.63
4290.09
4365.64
4438.89
4509.4
4576.8
4640.71
4700.79
4756.73
4808.29
4855.25
4897.45
4934.77
4967.17
4994.62
5017.17
5034.91
5047.97
5056.49
5060.68
5060.73
5056.86
5049.29
5038.25
5023.93
5006.52
4986.18
4963.06
4937.26
4908.86
4877.92
4844.48
4808.55
4770.17
4729.35
4686.14
4640.59
4592.81
4542.92
4491.13
4437.65
4382.78
4326.87
4270.29
4213.48
4156.89
4101.02
4046.34
3993.36
3942.57
3894.4
3849.29
3807.62
3769.71
3735.83
3706.18
3680.92
3660.12
3643.79
3631.89
3624.3
3620.86
3621.36
3625.52
3633.05
3643.59
3656.76
3672.16
3689.36
3707.91
3727.36
3747.24
3767.11
3786.49
3804.93
3821.96
3837.04
3849.54
3858.54
3862.6
3859.22
3843.81
3807.81
3735.07
3594.93
3329
2825.71
1870.82
320.137
722.331
15000
14999.9
14999.8
14999.7
14999.4
14999.1
14998.5
14997.7
14996.5
14994.9
14992.7
14989.7
14985.6
14980.3
14973.2
14964.1
14952.4
14937.6
14918.9
14895.6
14866.8
14831.6
14788.9
14737.5
14676.2
14603.7
14518.6
14419.6
14305.2
14174.3
14025.4
13857.4
13669.4
13460.4
13229.9
12977.6
12703.2
12407.2
12090
11752.6
11396.1
11022.2
10632.7
10229.8
9815.86
9393.55
8965.63
8535
8104.61
7677.41
7256.27
6843.98
6443.15
6056.18
5685.24
5332.21
4998.67
4685.92
4394.9
4126.26
3880.34
3657.19
3456.58
3278.07
3120.98
2984.47
2867.55
2769.1
2687.95
2622.87
2572.61
2535.92
2511.58
2498.43
2495.35
2501.3
2515.33
2536.57
2564.22
2597.59
2636.08
2679.13
2726.31
2777.2
2831.49
2888.88
2949.15
3012.09
3077.53
3145.29
3215.24
3287.23
3361.09
3436.68
3513.79
3592.22
3671.75
3752.1
3832.99
3914.09
3995.05
4075.49
4155.02
4233.21
4309.66
4383.93
4455.6
4524.26
4589.55
4651.09
4708.57
4761.72
4810.29
4854.1
4893.04
4927
4955.97
4979.96
4999.05
5013.34
5022.98
5028.15
5029.04
5025.86
5018.83
5008.17
4994.1
4976.79
4956.44
4933.18
4907.15
4878.44
4847.13
4813.27
4776.91
4738.1
4696.86
4653.27
4607.39
4559.34
4509.26
4457.35
4403.85
4349.04
4293.27
4236.92
4180.4
4124.18
4068.72
4014.52
3962.04
3911.77
3864.14
3819.58
3778.44
3741.05
3707.67
3678.5
3653.67
3633.26
3617.28
3605.66
3598.31
3595.05
3595.65
3599.85
3607.34
3617.76
3630.73
3645.85
3662.68
3680.78
3699.7
3718.99
3738.18
3756.84
3774.5
3790.72
3804.97
3816.63
3824.83
3828.14
3824.11
3808.22
3772.03
3699.56
3560.37
3296.3
2795.7
1845.2
319.086
721.041
15000
14999.9
14999.8
14999.7
14999.4
14999.1
14998.5
14997.7
14996.5
14994.9
14992.7
14989.7
14985.7
14980.3
14973.3
14964.3
14952.6
14937.8
14919.2
14896
14867.3
14832.3
14789.7
14738.5
14677.4
14605.2
14520.4
14421.8
14307.9
14177.3
14029
13861.5
13674.1
13465.7
13235.9
12984.2
12710.6
12415.2
12098.6
11761.8
11405.9
11032.4
10643.3
10240.6
9826.83
9404.48
8976.37
8545.37
8114.42
7686.46
7264.37
6850.93
6448.75
6060.25
5687.59
5332.68
4997.12
4682.21
4388.93
4117.93
3869.59
3643.97
3440.89
3259.89
3100.34
2961.41
2842.12
2741.38
2658.02
2590.81
2538.53
2499.91
2473.75
2458.87
2454.15
2458.56
2471.13
2490.97
2517.3
2549.4
2586.66
2628.54
2674.57
2724.35
2777.55
2833.89
2893.12
2955.06
3019.53
3086.37
3155.45
3226.63
3299.75
3374.68
3451.23
3529.22
3608.41
3688.56
3769.38
3850.56
3931.76
4012.6
4092.69
4171.6
4248.92
4324.22
4397.06
4467.03
4533.73
4596.79
4655.88
4710.68
4760.95
4806.49
4847.13
4882.78
4913.38
4938.93
4959.48
4975.13
4986
4992.26
4994.09
4991.69
4985.29
4975.1
4961.34
4944.21
4923.88
4900.53
4874.3
4845.3
4813.64
4779.38
4742.6
4703.35
4661.7
4617.73
4571.52
4523.2
4472.94
4420.92
4367.4
4312.67
4257.06
4200.95
4144.76
4088.93
4033.92
3980.21
3928.27
3878.56
3831.51
3787.53
3746.96
3710.13
3677.28
3648.6
3624.23
3604.23
3588.61
3577.29
3570.18
3567.08
3567.78
3572
3579.42
3589.7
3602.43
3617.23
3633.65
3651.25
3669.59
3688.21
3706.67
3724.53
3741.36
3756.7
3770.06
3780.84
3788.17
3790.68
3785.96
3769.55
3733.13
3660.87
3522.56
3260.25
2761.84
1808.14
318.048
718.518
15000
14999.9
14999.8
14999.7
14999.4
14999.1
14998.5
14997.7
14996.6
14995
14992.8
14989.8
14985.7
14980.4
14973.4
14964.4
14952.8
14938.1
14919.5
14896.4
14867.8
14832.9
14790.5
14739.5
14678.7
14606.7
14522.2
14423.9
14310.4
14180.3
14032.4
13865.6
13678.7
13471
13241.8
12990.8
12717.8
12423.1
12107.2
11771
11415.7
11042.8
10654
10251.7
9838.07
9415.76
8987.52
8556.21
8124.76
7696.1
7273.11
6858.56
6455.07
6065.06
5690.7
5333.91
4996.31
4679.22
4383.62
4110.22
3859.38
3631.22
3425.55
3241.96
3079.82
2938.33
2816.53
2713.35
2627.62
2558.14
2503.66
2462.95
2434.8
2418.02
2411.51
2414.22
2425.17
2443.47
2468.33
2499.02
2534.93
2575.5
2620.25
2668.8
2720.8
2775.96
2834.06
2894.89
2958.29
3024.11
3092.22
3162.49
3234.78
3308.96
3384.86
3462.3
3541.07
3620.93
3701.61
3782.81
3864.18
3945.36
4025.95
4105.55
4183.72
4260.03
4334.04
4405.32
4473.47
4538.08
4598.81
4655.34
4707.38
4754.72
4797.16
4834.59
4866.92
4894.14
4916.27
4933.39
4945.6
4953.06
4955.93
4954.43
4948.75
4939.12
4925.75
4908.85
4888.62
4865.23
4838.85
4809.6
4777.61
4742.97
4705.78
4666.12
4624.06
4579.72
4533.19
4484.61
4434.17
4382.05
4328.53
4273.88
4218.45
4162.6
4106.76
4051.34
3996.82
3943.64
3892.27
3843.15
3796.71
3753.33
3713.37
3677.12
3644.82
3616.66
3592.76
3573.19
3557.93
3546.92
3540.04
3537.1
3537.88
3542.09
3549.43
3559.52
3571.98
3586.41
3602.37
3619.42
3637.12
3655.02
3672.7
3689.71
3705.63
3720.04
3732.45
3742.28
3748.71
3750.37
3744.91
3727.96
3691.27
3619.21
3481.79
3221.48
2727.83
1790.59
317.467
714.93
15000
14999.9
14999.8
14999.7
14999.4
14999.1
14998.5
14997.7
14996.6
14995
14992.8
14989.8
14985.8
14980.5
14973.5
14964.5
14953
14938.3
14919.8
14896.8
14868.3
14833.5
14791.2
14740.4
14679.8
14608.1
14523.9
14425.9
14312.8
14183.2
14035.7
13869.4
13683.1
13476
13247.5
12997.1
12724.9
12430.9
12115.7
11780.2
11425.4
11053.1
10664.8
10262.8
9849.46
9427.25
8998.94
8567.4
8135.52
7706.24
7282.42
6866.82
6462.08
6070.6
5694.59
5335.95
4996.33
4677.05
4379.14
4103.3
3849.93
3619.16
3410.84
3224.57
3059.76
2915.61
2791.18
2685.42
2597.19
2525.27
2468.46
2425.5
2395.2
2376.38
2367.91
2368.76
2377.93
2394.54
2417.78
2446.93
2481.34
2520.47
2563.84
2611.03
2661.71
2715.59
2772.44
2832.05
2894.28
2958.98
3026.01
3095.27
3166.63
3239.96
3315.11
3391.91
3470.17
3549.65
3630.1
3711.22
3792.69
3874.14
3955.18
4035.41
4114.38
4191.67
4266.82
4339.4
4408.99
4475.17
4537.58
4595.87
4649.74
4698.94
4743.26
4782.55
4816.71
4845.7
4869.51
4888.21
4901.87
4910.63
4914.66
4914.15
4909.29
4900.31
4887.42
4870.84
4850.77
4827.41
4800.93
4771.48
4739.21
4704.23
4666.66
4626.6
4584.16
4539.46
4492.62
4443.8
4393.18
4340.99
4287.47
4232.92
4177.68
4122.12
4066.64
4011.66
3957.64
3905.01
3854.23
3805.73
3759.92
3717.18
3677.84
3642.19
3610.47
3582.85
3559.43
3540.29
3525.39
3514.68
3508.03
3505.24
3506.08
3510.26
3517.48
3527.35
3539.5
3553.52
3568.97
3585.42
3602.42
3619.55
3636.38
3652.48
3667.45
3680.87
3692.29
3701.13
3706.6
3707.38
3701.15
3683.62
3646.65
3574.79
3438.41
3180.76
2693.45
1769.55
316.82
713.136
15000
14999.9
14999.8
14999.7
14999.4
14999.1
14998.5
14997.7
14996.6
14995
14992.8
14989.8
14985.8
14980.5
14973.6
14964.6
14953.1
14938.5
14920
14897.1
14868.7
14834
14791.9
14741.2
14680.8
14609.3
14525.4
14427.8
14315
14185.8
14038.9
13873
13687.3
13480.8
13252.9
13003.3
12731.7
12438.4
12123.9
11789.1
11435
11063.2
10675.5
10273.9
9860.87
9438.82
9010.53
8578.83
8146.61
7716.78
7292.21
6875.66
6469.74
6076.87
5699.26
5338.84
4997.24
4675.81
4375.6
4097.33
3841.43
3608.03
3397.02
3208.02
3040.46
2893.56
2766.41
2657.97
2567.11
2492.64
2433.35
2388.01
2355.41
2334.39
2323.82
2322.65
2329.91
2344.68
2366.16
2393.61
2426.4
2463.96
2505.8
2551.51
2600.76
2653.24
2708.73
2767.03
2827.98
2891.44
2957.31
3025.46
3095.78
3168.16
3242.46
3318.52
3396.16
3475.17
3555.29
3636.25
3717.72
3799.35
3880.76
3961.54
4041.25
4119.47
4195.72
4269.58
4340.59
4408.33
4472.43
4532.5
4588.23
4639.34
4685.6
4726.83
4762.9
4793.74
4819.33
4839.7
4854.92
4865.1
4870.39
4870.97
4867.04
4858.8
4846.49
4830.31
4810.49
4787.23
4760.71
4731.12
4698.62
4663.34
4625.43
4585.01
4542.21
4497.18
4450.05
4401
4350.24
4297.97
4244.47
4190.04
4135.01
4079.75
4024.65
3970.13
3916.62
3864.56
3814.4
3766.53
3721.38
3679.29
3640.59
3605.56
3574.42
3547.33
3524.41
3505.7
3491.17
3480.75
3474.3
3471.64
3472.52
3476.65
3483.7
3493.32
3505.12
3518.68
3533.57
3549.36
3565.63
3581.93
3597.86
3613.01
3626.97
3639.36
3649.73
3657.54
3662.02
3661.88
3654.86
3636.72
3599.47
3527.85
3392.6
3137.73
2656.17
1745.23
316.401
709.914
15000
14999.9
14999.8
14999.7
14999.4
14999.1
14998.5
14997.7
14996.6
14995
14992.8
14989.8
14985.9
14980.6
14973.7
14964.7
14953.2
14938.6
14920.3
14897.4
14869.1
14834.5
14792.5
14742
14681.8
14610.5
14526.9
14429.5
14317.1
14188.3
14041.8
13876.5
13691.3
13485.4
13258.1
13009.1
12738.2
12445.7
12131.9
11797.8
11444.4
11073.2
10686
10284.9
9872.2
9450.4
9022.19
8590.41
8157.93
7727.65
7302.42
6885
6478
6083.84
5704.72
5342.58
4999.07
4675.57
4373.1
4092.44
3834.02
3598
3384.29
3192.54
3022.19
2872.49
2742.55
2631.35
2537.76
2460.63
2398.75
2350.89
2315.87
2292.51
2279.7
2276.37
2281.56
2294.35
2313.93
2339.56
2370.58
2406.44
2446.63
2490.75
2538.44
2589.41
2643.43
2700.3
2759.87
2822
2886.59
2953.53
3022.71
3094.04
3167.38
3242.6
3319.52
3397.94
3477.64
3558.32
3639.7
3721.42
3803.1
3884.35
3964.73
4043.8
4121.1
4196.17
4268.57
4337.86
4403.63
4465.49
4523.1
4576.15
4624.39
4667.61
4705.66
4738.44
4765.89
4788.03
4804.9
4816.6
4823.25
4825.04
4822.13
4814.74
4803.1
4787.42
4767.93
4744.85
4718.38
4688.71
4656.04
4620.51
4582.31
4541.57
4498.45
4453.11
4405.72
4356.47
4305.57
4253.25
4199.79
4145.49
4090.68
4035.73
3981.02
3926.97
3874
3822.53
3772.99
3725.77
3681.28
3639.85
3601.8
3567.4
3536.85
3510.31
3487.87
3469.58
3455.41
3445.27
3439.01
3436.45
3437.34
3441.38
3448.25
3457.57
3468.97
3482.02
3496.31
3511.4
3526.87
3542.3
3557.28
3571.42
3584.34
3595.65
3604.95
3611.69
3615.15
3614.06
3606.22
3587.46
3549.93
3478.59
3344.65
3093.04
2618.22
1716.67
316.087
703.694
15000
14999.9
14999.8
14999.7
14999.4
14999.1
14998.5
14997.7
14996.6
14995
14992.8
14989.9
14985.9
14980.6
14973.7
14964.8
14953.3
14938.8
14920.5
14897.6
14869.4
14834.9
14793.1
14742.7
14682.6
14611.6
14528.2
14431.1
14319
14190.6
14044.5
13879.7
13695
13489.7
13263
13014.7
12744.5
12452.6
12139.6
11806.1
11453.4
11082.9
10696.3
10295.7
9883.41
9461.89
9033.84
8602.06
8169.41
7738.77
7312.98
6894.8
6486.82
6091.46
5710.94
5347.18
5001.87
4676.36
4371.72
4088.72
3827.84
3589.24
3372.85
3178.35
3005.2
2852.67
2719.89
2605.87
2509.49
2429.61
2365.03
2314.56
2276.99
2251.17
2235.98
2230.37
2233.35
2244.03
2261.57
2285.23
2314.36
2348.39
2386.81
2429.21
2475.23
2524.58
2577.02
2632.36
2690.44
2751.14
2814.35
2879.97
2947.92
3018.09
3090.37
3164.64
3240.73
3318.47
3397.62
3477.93
3559.1
3640.79
3722.65
3804.27
3885.22
3965.06
4043.33
4119.56
4193.3
4264.09
4331.5
4395.14
4454.63
4509.64
4559.89
4605.14
4645.22
4680
4709.39
4733.38
4751.99
4765.3
4773.42
4776.5
4774.73
4768.29
4757.42
4742.34
4723.28
4700.46
4674.11
4644.45
4611.66
4575.96
4537.51
4496.5
4453.1
4407.5
4359.88
4310.45
4259.44
4207.09
4153.68
4099.53
4044.95
3990.32
3936.02
3882.44
3830.01
3779.14
3730.22
3683.67
3639.84
3599.08
3561.68
3527.9
3497.94
3471.94
3449.99
3432.11
3418.28
3408.39
3402.31
3399.83
3400.69
3404.61
3411.24
3420.23
3431.18
3443.69
3457.32
3471.67
3486.3
3500.81
3514.8
3527.89
3539.72
3549.92
3558.1
3563.75
3566.16
3564.1
3555.42
3536.04
3498.24
3427.25
3294.83
3047.21
2582.83
1713.21
316.093
697.629
15000
14999.9
14999.8
14999.7
14999.4
14999.1
14998.5
14997.7
14996.6
14995
14992.8
14989.9
14985.9
14980.7
14973.8
14964.9
14953.4
14938.9
14920.6
14897.9
14869.7
14835.3
14793.6
14743.3
14683.4
14612.6
14529.4
14432.6
14320.8
14192.7
14047.1
13882.7
13698.5
13493.7
13267.7
13020
12750.5
12459.3
12146.9
11814.2
11462.2
11092.3
10706.3
10306.3
9894.45
9473.28
9045.45
8613.74
8181
7750.1
7323.85
6905
6496.15
6099.72
5717.9
5352.64
5005.62
4678.21
4371.49
4086.25
3822.97
3581.85
3362.83
3165.61
2989.67
2834.32
2698.69
2581.81
2482.59
2399.9
2332.55
2279.37
2239.16
2210.76
2193.08
2185.07
2185.72
2194.15
2209.53
2231.1
2258.22
2290.29
2326.82
2367.38
2411.62
2459.24
2510
2563.7
2620.19
2679.36
2741.09
2805.29
2871.9
2940.81
3011.93
3085.14
3160.29
3237.22
3315.72
3395.53
3476.38
3557.95
3639.87
3721.75
3803.17
3883.68
3962.83
4040.14
4115.14
4187.37
4256.39
4321.77
4383.12
4440.09
4492.36
4539.67
4581.82
4618.64
4650.03
4675.95
4696.38
4711.4
4721.08
4725.56
4725.01
4719.63
4709.63
4695.24
4676.7
4654.24
4628.1
4598.52
4565.7
4529.88
4491.26
4450.03
4406.4
4360.57
4312.76
4263.18
4212.08
4159.72
4106.38
4052.38
3998.05
3943.75
3889.86
3836.77
3784.88
3734.6
3686.32
3640.43
3597.27
3557.17
3520.42
3487.26
3457.88
3432.41
3410.92
3393.44
3379.93
3370.28
3364.33
3361.89
3362.7
3366.46
3372.82
3381.43
3391.9
3403.8
3416.74
3430.29
3444.04
3457.59
3470.55
3482.56
3493.27
3502.33
3509.36
3513.9
3515.23
3512.19
3502.66
3482.66
3444.61
3374.03
3243.3
2999.85
2544.15
1689.39
315.796
691.752
15000
14999.9
14999.8
14999.7
14999.4
14999.1
14998.5
14997.7
14996.6
14995
14992.9
14989.9
14986
14980.7
14973.9
14965
14953.5
14939
14920.8
14898.1
14870
14835.7
14794
14743.9
14684.2
14613.5
14530.6
14434.1
14322.6
14194.8
14049.5
13885.6
13701.9
13497.6
13272.2
13025.1
12756.2
12465.7
12154.1
11822
11470.7
11101.5
10716.2
10316.7
9905.33
9484.55
9057
8625.43
8192.68
7761.6
7334.99
6915.58
6505.98
6108.58
5725.58
5358.94
5010.33
4681.14
4372.45
4085.07
3819.49
3575.92
3354.34
3154.46
2975.78
2817.63
2679.15
2559.41
2457.32
2371.78
2301.62
2245.65
2202.72
2171.67
2151.4
2140.86
2139.08
2145.15
2158.24
2177.61
2202.59
2232.59
2267.11
2305.73
2348.08
2393.86
2442.83
2494.79
2549.6
2607.12
2667.28
2729.97
2795.14
2862.68
2932.53
3004.58
3078.69
3154.7
3232.43
3311.63
3392.05
3473.36
3555.22
3637.24
3719.02
3800.1
3880.02
3958.32
4034.5
4108.11
4178.67
4245.74
4308.92
4367.82
4422.11
4471.49
4515.72
4554.63
4588.07
4615.97
4638.3
4655.09
4666.41
4672.39
4673.17
4668.94
4659.91
4646.31
4628.38
4606.37
4580.53
4551.11
4518.35
4482.49
4443.75
4402.36
4358.55
4312.55
4264.58
4214.88
4163.72
4111.37
4058.12
4004.29
3950.21
3896.25
3842.77
3790.17
3738.82
3689.14
3641.49
3596.24
3553.74
3514.3
3478.19
3445.64
3416.82
3391.86
3370.82
3353.72
3340.5
3331.05
3325.22
3322.79
3323.5
3327.06
3333.11
3341.3
3351.23
3362.5
3374.7
3387.41
3400.24
3412.78
3424.68
3435.57
3445.13
3453.03
3458.9
3462.3
3462.55
3458.51
3448.13
3427.5
3389.21
3319.09
3190.08
2950.58
2501.77
1651.3
315.125
690.424
15000
14999.9
14999.8
14999.7
14999.4
14999.1
14998.5
14997.7
14996.6
14995
14992.9
14989.9
14986
14980.8
14973.9
14965
14953.6
14939.2
14921
14898.3
14870.3
14836.1
14794.5
14744.6
14685
14614.5
14531.7
14435.5
14324.3
14196.8
14051.9
13888.4
13705.2
13501.5
13276.5
13030.1
12761.8
12472
12161
11829.7
11479.1
11110.5
10725.8
10326.9
9916.1
9495.75
9068.52
8637.15
8204.46
7773.27
7346.38
6926.52
6516.26
6118.01
5733.96
5366.06
5015.99
4685.13
4374.6
4085.19
3817.42
3571.52
3347.47
3145
2963.64
2802.73
2661.45
2538.86
2433.91
2345.5
2272.49
2213.7
2167.99
2134.21
2111.27
2098.13
2093.81
2097.42
2108.12
2125.17
2147.9
2175.72
2208.13
2244.7
2285.05
2328.89
2375.97
2426.1
2479.12
2534.92
2593.4
2654.49
2718.11
2784.2
2852.68
2923.46
2996.41
3071.4
3148.24
3226.71
3306.57
3387.51
3469.19
3551.23
3633.24
3714.77
3795.36
3874.53
3951.81
4026.69
4098.72
4167.43
4232.38
4293.18
4349.46
4400.9
4447.23
4488.24
4523.76
4553.69
4577.97
4596.61
4609.65
4617.2
4619.39
4616.4
4608.43
4595.72
4578.51
4557.04
4531.59
4502.43
4469.79
4433.96