<?xml version="1.0"?>
<VTKFile type="PolyData" version="0.1" byte_order="LittleEndian">
  <PolyData>
    <Piece NumberOfPoints="50000" NumberOfVerts="50000" NumberOfLines="0" NumberOfStrips="0" NumberOfPolys="0">
      <Points>
        <DataArray type="Float32" NumberOfComponents="3" format="ascii">
0.291838 0.00627444 0
-0.276908 0.00223116 0
0.282706 -0.00186665 0
0.295242 -0.00149606 0
-0.240857 0.0047115 0
-0.202316 0.00170979 0
0.0970781 -0.0187847 0
-0.24899 0.000118267 0
0.0856944 -0.0146238 0
-0.0195202 0.00667033 0
0.221711 -0.00913008 0
0.281694 0.00572429 0
-0.162175 0.00527061 0
-0.115043 -0.0176898 0
-0.30249 0.00179523 0
0.228571 0.00899276 0
-0.0421429 -0.00143587 0
0.292805 0.00124754 0
0.111036 0.00113088 0
-0.277247 0.00284298 0
-0.290523 0.00416491 0
0.253692 0.00498312 0
-0.286706 0.00199883 0
0.285538 3.90025e-05 0
0.181843 -0.00919256 0
0.212585 0.0095009 0
-0.284235 -0.00537207 0
0.293245 -0.00242728 0
-0.203409 0.0172779 0
-0.299337 0.0067712 0
-0.225223 0.00894947 0
-0.209289 -0.0119135 0
0.290477 0.000636614 0
0.292337 -0.000714947 0
0.0557156 0.00384894 0
0.297284 -0.00114547 0
0.0902862 0.00118668 0
-0.296885 0.00199404 0
-0.277705 -0.00368343 0
-0.308698 -0.00168479 0
0.214286 0.00967598 0
0.226553 0.00457228 0
-0.283582 -0.00156808 0
0.288637 0.000568546 0
0.299008 0.00101491 0
-0.291968 0.00652899 0
0.284425 0.00367216 0
0.145778 -0.0108199 0
0.280751 0.000306521 0
0.287444 0.000186777 0
0.12045 0.0158009 0
-0.286282 -0.000599534 0
-0.198924 0.00704325 0
0.283728 0.00220239 0
-0.281816 0.00196458 0
-0.300375 0.00207584 0
0.292172 -0.00086166 0
0.117926 0.00859429 0
0.21842 0.00562237 0
0.301626 -0.00349908 0
0.246224 0.00358565 0
0.295303 0.00201809 0
0.0650913 -0.0233247 0
0.301557 -0.00120637 0
-0.0969488 0.0124973 0
-0.280982 0.0012496 0
0.286622 -0.000573347 0
0.294407 -0.000377627 0
0.304499 0.00304652 0
0.210826 0.000822895 0
-0.284248 0.00259543 0
0.286276 0.00283732 0
0.156519 0.00102394 0
0.159788 0.00510607 0
0.136305 0.00389051 0
-0.288483 -0.00161029 0
0.250108 0.0092246 0
-0.273812 0.00337867 0
0.220651 0.00513738 0
-0.299717 0.00142186 0
-0.150841 -0.0243342 0
-0.293651 0.00343799 0
0.27068 0.00384426 0
-0.285476 0.000710498 0
0.301255 -0.00333394 0
-0.286152 0.00265843 0
0.301755 -0.00326639 0
-0.12864 -0.00598669 0
-0.124432 0.0168911 0
-0.2887 -0.00494235 0
0.283727 0.00498148 0
-0.282387 -0.000212343 0
0.285034 -0.00117049 0
-0.194484 0.0144079 0
-0.0292186 -0.0156183 0
-0.253966 0.00405989 0
0.284613 0.00647057 0
-0.291076 0.0026101 0
-0.307067 0.00557187 0
-0.304467 -0.000493854 0
-0.255196 -0.00523502 0
-0.283454 -0.00384974 0
0.303696 -0.000310822 0
-0.122592 -0.014711 0
0.305844 -0.000215422 0
0.250266 0.00935086 0
0.184424 0.00504431 0
0.0148204 0.00589556 0
0.281045 0.00344755 0
-0.287276 -0.00311435 0
-0.216437 0.0144507 0
-0.291393 0.0025437 0
-0.248585 0.00786004 0
211.798 306.378 0
0.191739 0.00550862 0
-0.287157 0.00283442 0
-0.297791 0.00344917 0
5.43534 7.43529 0
-0.28932 0.00144084 0
-0.0145629 -0.006052 0
0.293356 -0.000846853 0
-0.279113 -0.00250179 0
0.198008 -0.00232435 0
-0.266745 0.00559617 0
0.287899 -0.000314596 0
0.279849 -0.000500453 0
0.0919562 0.0174644 0
0.295677 0.00337896 0
-0.25859 -0.00473555 0
0.223189 -0.000463654 0
0.297457 -0.00210394 0
0.29505 -0.000112663 0
-0.305783 0.000786977 0
-0.255065 0.00316031 0
0.302222 -0.00111259 0
0.287264 -0.000553903 0
0.276952 -0.00183126 0
-0.04593 0.00248185 0
0.231491 -0.0100136 0
0.225249 -0.00838298 0
0.231393 -0.0101794 0
0.274595 0.00714558 0
0.296866 -0.00225676 0
-0.0687388 -0.00985525 0
-0.296478 0.00509382 0
0.197009 -0.0160218 0
-0.189737 0.0146748 0
-0.292455 0.00167415 0
-0.208916 -0.0141093 0
-0.293387 0.00289429 0
0.223968 0.00553917 0
0.285345 0.00184101 0
-0.0889844 -0.00829832 0
0.23228 -0.00723188 0
0.23097 0.00624147 0
0.282988 0.00301425 0
0.193711 -0.00679036 0
-0.287525 0.00223756 0
-0.123998 -0.00409806 0
0.296035 -8.24742e-05 0
0.197787 -0.000990378 0
-0.260957 -0.00193401 0
-0.282499 0.00204553 0
-0.293735 0.00209204 0
-0.0758841 0.00741649 0
0.227989 -0.00436902 0
0.257695 -0.00384262 0
0.260985 0.00285338 0
0.218386 0.00592536 0
-0.120637 0.000625541 0
0.304872 -0.00335075 0
-0.281583 0.00246623 0
-0.0667666 -0.00405078 0
0.294719 0.00333254 0
-0.053672 -0.0022896 0
-0.227269 0.0115525 0
-0.282347 0.00201541 0
-0.171655 -0.00775501 0
-0.286271 -0.00147367 0
-0.287537 -0.00455556 0
0.282511 0.000119486 0
-0.290812 0.00484559 0
-0.286387 0.00412096 0
0.291701 0.00405305 0
0.284523 -0.000479247 0
0.219908 -0.012303 0
0.305522 -0.00229078 0
0.302254 0.000495211 0
0.293134 -0.00248806 0
0.0327864 0.0215109 0
0.298119 -0.00246503 0
0.24137 -0.0064037 0
-0.193921 -0.013053 0
0.268627 0.00482413 0
-0.266029 0.00480418 0
0.282474 0.00144384 0
-0.236994 0.0086795 0
-0.252607 0.00403351 0
-0.283473 0.00299146 0
0.286062 0.00376336 0
-0.18929 0.0138849 0
0.301448 0.00214263 0
0.261506 -0.00376906 0
-0.059478 -0.0049288 0
0.305356 -0.00342422 0
-0.27949 -0.00559723 0
0.0396941 0.034658 0
0.121108 -0.0046198 0
-0.252943 0.007935 0
-0.17817 -0.00715445 0
0.279703 0.00059985 0
-0.124232 -0.0149616 0
0.263517 -0.00246766 0
-0.244454 0.00816283 0
-0.167498 -0.0112318 0
-0.293664 0.00458371 0
-0.289747 0.00576446 0
0.289915 -3.0922e-05 0
-0.297755 -0.000827412 0
-0.0349241 0.0153675 0
-0.229015 0.00867648 0
-0.297206 0.00281746 0
-0.275848 -0.00443724 0
0.302815 -0.00195694 0
0.107187 0.0180242 0
-0.282522 0.00238876 0
0.304352 0.000997806 0
0.292075 -0.000426692 0
-0.251013 0.00725307 0
-0.296107 -0.000254381 0
-0.29141 -0.00260116 0
0.284174 0.00326183 0
0.147991 0.0172502 0
-0.0448898 0.0110318 0
-0.301544 0.0033907 0
-0.259553 0.00445186 0
0.223311 -0.0124981 0
-0.228415 -0.00305159 0
-0.288129 0.00259497 0
0.176979 -0.00194054 0
0.298774 0.000147569 0
-0.264633 -0.00474773 0
-0.291493 0.00262027 0
-0.168449 -0.00996057 0
0.145954 0.00512544 0
0.260868 0.00320156 0
-0.275118 0.00527757 0
0.292312 -0.000425261 0
0.300855 0.00210021 0
0.172528 0.00925811 0
0.180004 0.00334551 0
-0.274022 0.00384469 0
0.282354 -0.0019533 0
-0.129582 -0.00662246 0
-0.265057 0.00607234 0
0.282811 -2.97071e-05 0
-0.256906 0.00592647 0
0.250213 0.00668293 0
0.108477 0.0171052 0
0.15661 0.000382095 0
0.300744 0.000837044 0
-0.273922 0.00371963 0
0.0550262 -0.00578873 0
0.0275948 -0.00992507 0
-0.19535 0.00265622 0
-0.287804 0.000942638 0
-0.283366 0.0022945 0
-0.281465 -0.00084226 0
0.289733 -0.000568962 0
0.28745 -0.000409587 0
0.296112 -0.000517005 0
-0.290406 -0.00190718 0
0.189995 0.00240243 0
0.0157261 0.00915044 0
-0.303227 0.00381957 0
-0.294813 0.00183448 0
0.281386 -0.000111877 0
-0.281781 0.00235571 0
0.279292 0.00488425 0
-0.285939 -0.000882164 0
-0.277179 7.26489e-05 0
-0.128171 -0.0163906 0
-0.290462 0.0019569 0
0.274706 -0.00141279 0
-0.246741 0.00793765 0
-0.277969 -0.00215186 0
-0.110203 0.0145566 0
-0.289638 0.00253922 0
-0.294161 0.00292812 0
0.247784 -0.00206583 0
-0.103174 0.00508466 0
0.28932 -0.000508924 0
0.295658 -0.00193317 0
0.188439 0.010223 0
0.300246 0.00257121 0
0.285169 0.00466654 0
0.299075 0.00322571 0
-0.198862 0.0170226 0
-0.272041 0.00166127 0
-0.302381 0.000849491 0
0.30674 0.000831842 0
-0.040792 0.00551322 0
0.288335 -0.00110649 0
0.28146 0.00255652 0
0.296889 -0.000371274 0
0.050945 0.00898958 0
-0.152409 0.0182447 0
0.249954 0.00405957 0
-0.0348355 0.000466269 0
-0.141973 0.00693149 0
-0.23776 0.00852258 0
0.289278 0.00498924 0
-0.210464 0.0106816 0
0.267636 -0.00370818 0
0.220592 -0.00325738 0
-0.30146 0.0047166 0
0.235223 -0.0104514 0
0.303633 -0.00358957 0
0.271489 -0.00200975 0
0.290224 0.00553158 0
-0.294102 0.0040617 0
-0.0643522 0.0110462 0
0.296025 0.00167252 0
0.294705 -0.000511614 0
0.135932 0.0180721 0
-0.280688 -0.00014624 0
-0.275274 0.00381984 0
0.303363 0.00052964 0
-0.281339 -0.00200378 0
0.292685 0.00197499 0
0.294717 -0.00159055 0
0.14108 -0.0167315 0
0.282244 0.00271453 0
-0.288835 0.00257969 0
-0.247004 -0.000258501 0
-0.165834 -0.00164721 0
0.0234658 -0.00540475 0
0.0352507 -0.02098 0
-0.264936 0.00262002 0
0.131237 -0.0185986 0
-0.0307018 0.029415 0
-0.298275 0.00458249 0
-0.213003 0.0100268 0
-0.291145 0.00340374 0
-0.120485 -0.00961653 0
0.294603 0.0051456 0
-0.206811 0.0112398 0
-0.294756 0.000149872 0
-46.1492 190.885 0
0.293919 -0.00361502 0
0.293093 -0.000623553 0
-0.240023 0.0104079 0
0.285035 0.00232635 0
0.270362 -0.000548917 0
-414.888 -741.961 0
0.0899076 0.0107504 0
-0.291717 0.0028806 0
-0.242407 -0.00158986 0
0.290964 0.00273682 0
2.94876 -6.074 0
0.275376 0.00378807 0
-0.285536 -0.00415039 0
-0.182146 0.000383272 0
-0.28998 -0.00217652 0
-0.295594 0.00506302 0
0.288817 -0.000546076 0
-0.300089 -0.000833957 0
-0.260151 0.00681702 0
0.226579 0.00925966 0
-0.282814 0.000245786 0
-0.235616 0.0104188 0
-0.261469 0.00612591 0
0.291775 0.00323397 0
0.263105 -0.00484816 0
-0.173983 0.0139432 0
0.30004 -0.0013111 0
-0.291881 -0.00387955 0
-0.271334 -0.00241869 0
-0.295013 0.0011175 0
0.0256524 -0.0222485 0
-0.284051 -0.00365892 0
0.287928 0.00326917 0
-0.289396 0.00286533 0
-0.287923 0.00164309 0
-0.0707819 0.0111156 0
0.188444 0.010086 0
-0.0939094 0.0264984 0
0.0620991 0.015096 0
-0.292076 0.00303351 0
-0.0526511 0.00282065 0
-0.292643 -0.000491514 0
-0.294118 0.00417672 0
0.281362 -0.00401245 0
0.247746 0.0070057 0
-0.275071 0.00484374 0
0.261567 0.00372791 0
0.259678 0.00118443 0
-0.280615 0.00242247 0
-0.154772 -0.00490164 0
0.205388 -0.0122345 0
-0.281028 0.000815415 0
0.248779 -0.00622486 0
0.114012 -0.00325589 0
-0.288719 -0.000500999 0
0.27027 -0.000234716 0
0.284307 -0.00147018 0
0.288818 -0.00319709 0
0.294205 -0.000914463 0
0.299156 0.000234414 0
0.283641 0.00519371 0
-0.290693 0.00221775 0
0.209176 0.00719901 0
-0.240028 -0.00342223 0
0.137353 0.019506 0
-0.273669 0.00218938 0
-0.0976095 -0.00381282 0
-0.226846 0.00871014 0
0.0830432 -0.00989839 0
-0.29673 0.00304245 0
0.283943 -0.000558546 0
-0.079767 0.0215592 0
0.101699 0.0114608 0
-0.300712 0.002663 0
0.286054 0.00157665 0
0.294784 -0.00027712 0
0.281454 0.00644514 0
[...]
      <PointData Scalars="T">
        <DataArray type="Float32" Name="T" format="ascii" NumberOfComponents="1">
312.032
397.654
311.825
311.825
397.654
531.984
311.825
580.045
311.825
397.654
311.825
312.032
397.654
409.24
544.04
312.032
409.24
301.833
301.522
397.654
397.654
312.032
397.654
309.308
311.825
312.032
409.24
311.825
397.654
397.654
397.654
409.24
301.72
311.825
312.032
311.825
301.544
397.654
409.24
409.24
312.032
312.032
409.24
302.249
300.932
397.654
312.032
311.825
306.263
307.55
312.032
409.24
397.654
312.032
397.654
397.654
311.825
312.032
312.032
311.825
312.032
312.032
311.825
311.825
397.654
587.889
311.825
311.825
312.032
301.129
397.654
312.032
300.833
312.032
312.032
409.24
312.032
397.654
312.032
543.715
409.24
397.654
312.032
539.2
311.825
397.654
311.825
409.24
397.654
409.24
312.032
409.24
311.825
397.654
409.24
397.654
312.032
397.654
397.654
409.24
409.24
409.24
311.825
409.24
311.825
312.032
312.032
312.032
312.032
409.24
397.654
397.654
397.654
312.032
312.032
397.654
397.654
312.032
549.064
409.24
311.825
409.24
311.825
397.654
311.825
311.825
312.032
312.032
409.24
311.825
311.825
311.825
595.518
397.654
311.825
311.825
311.825
397.654
311.825
311.825
311.825
312.032
311.825
409.24
397.654
311.825
397.654
532.406
409.24
397.654
312.032
311.611
409.24
311.825
312.032
312.032
311.825
397.654
409.24
311.825
311.825
409.24
397.654
397.654
397.654
311.825
311.825
312.032
312.032
542.704
311.825
397.654
409.24
312.032
409.24
397.654
397.654
409.24
409.24
409.24
309.245
397.654
397.654
312.032
311.825
311.825
311.825
303.044
311.825
312.032
311.825
311.825
409.24
312.032
397.654
303.052
397.654
397.654
397.654
312.032
397.654
312.032
311.825
409.24
311.825
409.24
312.032
311.825
397.654
409.24
302.051
409.24
311.825
397.654
409.24
397.654
397.654
311.825
409.24
397.654
397.654
397.654
409.24
311.825
312.032
397.654
300.871
311.825
397.654
409.24
409.24
312.032
312.032
397.654
397.654
397.654
311.825
409.24
397.654
311.825
308.832
409.24
397.654
409.24
312.032
312.032
397.654
311.825
312.032
312.032
312.032
397.654
311.825
409.24
397.654
311.825
397.654
312.032
312.032
304.136
301.033
397.654
311.825
311.825
397.654
572.25
397.654
409.24
311.825
311.825
311.825
409.24
312.032
312.032
397.654
547.191
311.825
397.654
312.032
409.24
574.562
409.24
397.654
311.825
397.654
409.24
397.654
397.654
397.654
311.825
397.654
311.825
311.825
312.032
312.032
312.032
312.032
397.654
533.276
558.725
301.033
397.654
311.825
312.032
311.825
312.032
397.654
312.032
527.265
397.654
397.654
312.032
397.654
311.825
311.825
397.654
311.825
311.825
311.825
312.032
397.654
397.654
307.031
311.825
312.032
409.24
397.654
302.633
409.24
312.032
311.825
311.825
312.032
397.654
409.24
409.24
311.825
311.825
397.654
311.825
397.654
397.654
397.654
397.654
409.24
312.032
397.654
588.139
397.654
311.825
311.825
397.654
312.032
311.825
409.24
312.032
397.654
409.24
312.032
311.825
312.032
409.24
541.564
409.24
397.654
311.825
409.24
397.654
312.032
561.208
397.654
397.654
312.032
311.825
397.654
311.825
409.24
409.24
580.929
311.825
409.24
312.032
397.654
531.937
397.654
312.032
397.654
312.032
397.654
397.654
409.24
397.654
311.825
312.032
397.654
312.032
301.544
397.654
409.24
311.825
556.937
311.825
311.825
409.24
311.825
311.825
311.825
311.825
306.43
312.032
397.654
312.032
409.24
312.032
397.654
409.24
397.654
311.825
397.654
311.825
397.654
312.032
397.654
305.133
311.825
312.032
311.825
397.654
397.654
311.825
397.654
312.032
397.654
312.032
574.333
409.24
397.654
397.654
312.032
301.746
397.654
311.825
524.226
409.24
409.24
397.654
409.24
312.032
311.825
409.24
312.032
409.24
409.24
311.825
311.825
409.24
397.654
540.155
409.24
301.363
409.24
303.674
397.654
409.24
311.825
312.032
409.24
409.24
397.654
397.654
312.032
539.187
311.825
311.825
312.032
397.654
397.654
397.654
309.267
312.032
547.098
409.24
409.24
397.654
301.616
312.032
311.825
300.829
397.654
312.032
312.032
300.831
397.654
312.032
311.825
409.24
311.825
397.654
397.654
397.654
409.24
409.24
409.24
409.24
409.24
311.825
311.825
311.825
312.032
311.825
312.032
312.032
409.24
312.032
397.654
311.825
312.032
397.654
312.032
397.654
545.023
397.654
542.624
312.032
311.825
312.032
311.825
311.825
311.825
397.654
312.032
312.032
523.484
312.032
532.734
397.654
409.24
311.825
311.825
397.654
397.654
409.24
409.24
409.24
312.032
312.032
306.229
312.032
409.24
397.654
312.032
397.654
301.943
312.032
409.24
397.654
311.825
397.654
312.032
312.032
409.24
312.032
409.24
311.825
589.029
397.654
301.507
311.825
409.24
409.24
557.361
397.654
397.654
312.032
311.825
311.825
301.129
312.032
409.24
542.05
409.24
409.24
397.654
312.032
311.825
397.654
312.032
409.24
300.906
312.032
303.961
397.654
312.032
409.24
584.507
312.032
311.825
409.24
312.032
397.654
311.825
311.825
312.032
311.825
409.24
409.24
397.654
617.53
312.032
409.24
311.825
409.24
409.24
312.032
311.825
409.24
409.24
397.654
397.654
311.825
311.825
397.654
409.24
409.24
312.032
311.825
397.654
397.654
311.825
311.825
312.032
312.032
397.654
409.24
409.24
409.24
409.24
312.032
397.654
312.032
312.032
409.24
397.654
311.825
311.825
409.24
397.654
311.825
409.24
409.24
397.654
311.825
409.24
397.654
312.032
397.654
397.654
311.825
312.032
397.654
312.032
311.825
533.181
312.032
311.825
397.654
397.654
311.825
311.825
311.825
312.032
312.032
409.24
409.24
397.654
397.654
312.032
397.654
409.24
301.559
312.032
397.654
528.317
397.654
311.825
312.032
312.032
312.032
397.654
311.825
311.825
569.331
397.654
312.032
311.825
312.032
312.032
312.032
397.654
312.032
312.032
311.825
397.654
312.032
397.654
311.825
312.032
311.825
312.032
311.825
397.654
306.229
562.486
312.032
397.654
397.654
397.654
311.825
409.24
312.032
397.654
311.825
312.032
409.24
311.825
556.937
409.24
588.139
397.654
397.654
397.654
311.825
311.825
311.825
311.825
311.825
536.274
312.032
397.654
409.24
311.825
311.825
397.654
301.363
397.654
312.032
397.654
397.654
397.654
409.24
409.24
301.559
397.654
312.032
397.654
409.24
397.654
409.24
409.24
311.825
312.032
311.825
397.654
409.24
397.654
533.276
409.24
397.654
409.24
312.032
397.654
409.24
311.825
311.825
311.825
547.146
397.654
409.24
312.032
409.24
301.538
397.654
409.24
409.24
312.032
311.825
312.032
302.862
311.825
397.654
397.654
311.825
397.654
312.032
545.236
312.032
397.654
409.24
312.032
397.654
302.406
397.654
397.654
311.825
301.507
409.24
312.032
311.825
302.105
312.032
397.654
409.24
409.24
312.032
397.654
302.611
312.032
311.825
311.825
409.24
397.654
303.378
397.654
397.654
311.825
311.825
312.032
311.825
397.654
409.24
312.032
397.654
311.872
312.032
397.654
397.654
312.032
586.994
311.825
311.825
397.654
397.654
311.825
301.559
397.654
409.24
409.24
312.032
302.337
542.05
397.654
397.654
540.858
409.24
311.825
397.654
311.825
544.04
311.825
311.825
543.689
311.825
528.317
312.032
311.825
397.654
409.24
312.032
311.825
312.032
312.032
312.032
312.032
397.654
312.032
311.825
573.629
311.825
312.032
397.654
311.825
311.825
312.032
397.654
397.654
409.24
311.825
409.24
311.825
409.24
397.654
397.654
312.032
409.24
579.979
409.24
311.825
575.425
397.654
311.825
312.032
409.24
409.24
311.825
397.654
311.825
311.825
409.24
312.032
409.24
310.424
311.825
312.032
311.825
312.032
312.032
397.654
310.72
311.825
311.825
397.654
311.825
409.24
397.654
409.24
311.825
312.032
397.654
409.24
397.654
311.825
397.654
397.654
309.124
311.825
312.032
312.032
397.654
397.654
311.825
397.654
312.032
397.654
409.24
302.611
409.24
311.825
397.654
409.24
397.654
397.654
397.654
543.172
409.24
397.654
397.654
312.032
554.628
311.825
311.825
311.825
311.825
312.032
397.654
311.825
397.654
312.032
397.654
312.032
308.019
409.24
312.032
397.654
311.825
312.032
311.825
409.24
311.825
397.654
301.356
409.24
409.24
312.032
409.24
397.654
397.654
409.24
311.825
312.032
312.032
312.032
409.24
311.825
409.24
311.825
303.026
312.032
312.032
312.032
311.825
311.825
409.24
312.032
312.032
409.24
397.654
311.825
397.654
300.831
397.654
409.24
397.654
536.318
409.24
397.654
312.032
409.24
312.032
544.04
311.825
397.654
312.032
397.654
397.654
312.032
312.032
397.654
311.825
312.032
307.957
301.943
409.24
397.654
570.741
596.242
311.825
397.654
304.571
397.654
397.654
311.825
311.825
397.654
312.032
311.825
307.55
311.825
397.654
309.252
312.032
397.654
397.654
397.654
409.24
397.654
311.825
397.654
311.825
409.24
305.003
311.825
312.032
397.654
409.24
409.24
397.654
311.825
312.032
409.24
311.825
301.389
409.24
409.24
311.825
397.654
301.808
311.825
312.032
409.24
397.654
397.654
397.654
312.032
585.282
312.032
532.815
397.654
311.825
312.032
312.032
311.825
312.032
572.851
563.443
409.24
397.654
311.825
312.032
312.032
312.032
312.032
312.032
409.24
397.654
397.654
397.654
409.24
397.654
397.654
304.766
311.825
311.825
311.825
311.825
397.654
311.825
397.654
301.72
409.24
397.654
312.032
397.654
575.132
311.825
590.109
311.825
311.825
311.825
311.825
312.032
312.032
311.825
312.032
409.24
300.948
532.406
312.032
312.032
309.252
409.24
311.825
409.24
312.032
312.032
312.032
312.032
397.654
311.825
397.654
312.032
309.252
311.825
578.081
579.063
583.172
311.825
311.825
409.24
312.032
397.654
312.032
311.825
409.24
397.654
547.814
311.825
312.032
397.654
311.825
397.654
312.032
397.654
397.654
524.173
397.654
311.825
311.825
409.24
397.654
397.654
397.654
311.825
409.24
312.032
397.654
312.032
312.032
397.654
397.654
312.032
397.654
311.825
311.825
311.825
397.654
302.11
311.825
409.24
397.654
311.825
397.654
311.825
397.654
397.654
311.825
409.24
409.24
309.267
309.316
312.032
311.825
312.032
409.24
312.943
312.032
397.654
397.654
311.825
397.654
312.032
300.932
539.187
397.654
312.032
578.081
537.338
301.3
311.825
584.696
541.332
311.825
397.654
554.628
409.24
409.24
397.654
311.825
311.825
397.654
397.654
311.825
409.24
311.825
312.032
312.032
397.654
397.654
311.825
537.338
312.032
397.654
312.032
311.825
531.937
311.825
311.825
409.24
397.654
409.24
409.24
397.654
397.654
397.654
397.654
312.032
311.825
311.825
397.654
311.825
397.654
397.654
311.825
397.654
397.654
312.032
397.654
409.24
311.825
409.24
409.24
312.032
397.654
312.032
310.72
311.825
311.825
397.654
312.032
302.354
397.654
397.654
312.032
397.654
397.654
303.674
311.825
311.825
409.24
311.825
397.654
302.804
311.825
572.642
397.654
397.654
311.825
311.825
397.654
397.654
397.654
409.24
310.424
409.24
311.825
409.24
409.24
307.72
312.032
311.825
409.24
312.032
311.825
312.032
545.182
311.825
569.331
409.24
397.654
397.654
538.635
409.24
409.24
312.032
312.032
409.24
397.654
397.654
311.825
397.654
397.654
397.654
409.24
409.24
311.825
311.825
312.032
397.654
312.032
312.032
311.825
409.24
311.825
304.533
312.032
301.437
312.032
397.654
564.409
573.581
397.654
539.382
311.825
409.24
409.24
312.032
397.654
409.24
397.654
536.775
397.654
397.654
587.752
311.825
409.24
409.24
397.654
409.24
397.654
311.825
409.24
397.654
311.825
311.825
311.825
409.24
409.24
397.654
312.032
397.654
409.24
303.495
397.654
397.654
397.654
312.032
397.654
312.032
312.032
311.825
409.24
311.825
302.315
409.24
573.44
311.825
312.032
409.24
397.654
397.654
311.825
397.654
409.24
397.654
312.032
312.032
311.825
312.032
409.24
397.654
397.654
311.825
312.032
397.654
312.032
312.032
571.728
409.24
409.24
312.032
312.032
312.032
397.654
312.032
572.293
312.032
397.654
397.654
531.937
312.032
311.825
311.825
311.825
409.24
311.825
311.825
545.182
397.654
312.032
312.032
306.555
397.654
311.825
397.654
311.825
312.032
311.825
301.389
409.24
397.654
577.84
312.032
311.825
311.825
311.825
397.654
312.032
397.654
312.032
309.334
312.032
409.24
305.315
397.654
312.032
312.032
311.825
409.24
311.825
311.825
311.825
311.825
312.032
563.443
312.032
311.825
397.654
409.24
575.695
529.901
397.654
397.654
532.734
397.654
311.825
311.825
409.24
312.032
397.654
547.146
397.654
311.825
409.24
409.24
312.032
311.825
312.032
312.032
312.032
531.937
312.032
312.032
311.825
312.032
397.654
302.377
555.929
409.24
409.24
311.825
409.24
397.654
397.654
397.654
397.654
397.654
583.172
397.654
312.032
312.032
311.825
397.654
311.825
397.654
311.825
312.032
397.654
301.143
306.306
312.032
312.032
311.825
540.155
311.825
301.206
397.654
312.032
536.52
312.032
397.654
311.825
311.825
397.654
397.654
409.24
397.654
409.24
397.654
311.825
311.825
311.825
409.24
312.032
397.654
311.825
409.24
312.032
397.654
397.654
409.24
397.654
309.028
311.825
409.24
311.825
312.032
409.24
397.654
308.832
312.032
397.654
312.032
312.032
311.825
311.825
311.825
409.24
397.654
409.24
409.24
312.032
311.825
312.032
301.538
311.825
397.654
577.38
579.521
311.825
301.171
311.825
311.825
397.654
311.825
312.032
312.032
312.032
309.267
312.032
397.654
397.654
397.654
312.032
397.654
397.654
311.825
301.005
309.368
300.788
397.654
312.032
397.654
312.032
312.032
397.654
311.825
409.24
409.24
409.24
311.825
409.24
409.24
541.332
409.24
409.24
397.654
409.24
409.24
545.182
311.825
397.654
397.654
312.032
312.032
311.825
311.825
312.032
397.654
397.654
312.032
409.24
409.24
312.032
397.654
409.24
306.653
312.032
311.825
397.654
397.654
311.825
397.654
397.654
311.825
409.24
301.507
306.339
311.825
311.825
397.654
397.654
397.654
311.825
397.654
397.654
397.654
397.654
409.24
397.654
312.032
409.24
397.654
397.654
312.032
397.654
311.825
397.654
540.155
312.032
397.654
409.24
311.825
311.825
409.24
573.046
574.333
311.825
537.866
397.654
537.866
409.24
397.654
409.24
409.24
312.032
311.825
409.24
397.654
311.825
312.032
311.825
409.24
311.825
311.825
312.032
312.032
397.654
409.24
397.654
397.654
308.019
397.654
312.032
397.654
409.24
409.24
311.825
300.775
409.24
397.654
311.825
544.702
312.032
311.825
312.032
311.825
311.825
312.032
397.654
409.24
409.24
397.654
311.825
311.825
409.24
307.028
542.05
397.654
397.654
409.24
397.654
312.032
311.825
397.654
409.24
311.872
312.032
397.654
311.825
397.654
311.825
311.825
311.825
397.654
312.032
311.825
311.825
312.032
409.24
300.799
409.24
409.24
311.825
311.825
409.24
539.382
312.032
311.825
311.825
409.24
409.24
397.654
312.032
312.032
409.24
312.032
311.825
569.312
311.825
312.032
397.654
409.24
588.139
397.654
397.654
547.557
397.654
397.654
312.032
409.24
301.005
409.24
409.24
312.032
532.654
397.654
397.654
409.24
311.825
397.654
409.24
312.032
397.654
542.624
397.654
312.032
311.825
312.032
311.825
409.24
409.24
397.654
409.24
397.654
397.654
409.24
397.654
397.654
311.825
312.032
312.032
303.378
301.72
409.24
570.741
312.032
312.032
409.24
409.24
397.654
311.825
532.654
397.654
397.654
311.825
397.654
311.825
312.032
301.437
311.825
397.654
312.032
397.654
397.654
409.24
312.032
397.654
312.032
301.746
307.755
311.825
397.654
409.24
304.766
309.22
301.538
312.032
312.032
311.825
409.24
311.825
311.825
397.654
578.289
397.654
311.825
311.825
311.825
397.654
531.937
397.654
312.032
397.654
312.032
524.226
304.867
311.825
311.825
311.825
397.654
312.032
409.24
304.533
311.825
312.032
397.654
409.24
409.24
397.654
409.24
409.24
305.78
397.654
409.24
311.825
311.825
311.872
397.654
397.654
409.24
409.24
312.032
397.654
409.24
409.24
312.032
397.654
576.272
311.825
397.654
312.032
409.24
311.825
397.654
409.24
312.032
397.654
311.825
409.24
397.654
311.825
312.032
409.24
397.654
397.654
311.825
397.654
409.24
311.825
584.524
312.032
312.032
573.581
312.032
311.825
311.825
311.825
302.517
409.24
311.825
312.032
563.675
312.032
397.654
409.24
409.24
397.654
409.24
311.825
409.24
312.032
312.032
312.032
311.825
312.032
311.825
311.825
312.032
409.24
312.032
312.032
409.24
311.825
311.825
312.032
301.005
409.24
311.825
311.825
409.24
312.032
409.24
409.24
311.825
397.654
397.654
311.825
397.654
312.032
302.517
312.032
311.825
311.825
311.825
311.825
311.825
301.356
397.654
409.24
586.337
312.032
304.571
397.654
311.825
311.825
409.24
311.825
312.032
311.825
311.825
311.825
397.654
312.032
311.825
397.654
311.825
409.24
312.032
311.825
312.032
397.654
409.24
312.032
397.654
397.654
311.825
311.825
311.825
397.654
312.032
300.999
569.672
397.654
311.825
311.825
312.032
409.24
409.24
409.24
311.825
312.032
311.825
409.24
397.654
311.825
304.279
312.032
312.032
311.825
397.654
312.032
409.24
312.032
397.654
397.654
312.943
312.032
397.654
526.136
312.032
409.24
566.816
545.193
563.808
397.654
397.654
409.24
311.825
311.825
409.24
312.032
409.24
312.032
311.825
409.24
311.825
311.825
397.654
311.825
543.342
523.484
397.654
397.654
312.032
312.032
311.825
409.24
311.825
409.24
311.825
311.825
397.654
409.24
397.654
303.674
302.315
312.032
307.333
409.24
311.825
397.654
311.825
397.654
311.825
397.654
397.654
312.032
311.825
409.24
311.825
397.654
312.032
397.654
409.24
409.24
409.24
311.825
397.654
409.24
524.173
409.24
409.24
311.825
397.654
311.825
311.825
312.032
311.825
312.032
311.825
397.654
409.24
524.226
312.032
312.032
397.654
311.825
309.334
311.825
311.825
397.654
397.654
312.032
312.032
311.825
311.825
574.152
300.932
409.24
397.654
397.654
311.825
397.654
301.3
409.24
311.825
397.654
409.24
312.032
397.654
312.032
311.825
312.032
578.322
409.24
305.512
311.825
311.825
311.825
312.032
409.24
312.032
307.028
397.654
311.825
312.032
311.825
409.24
312.032
312.032
409.24
532.406
524.173
305.791
311.825
397.654
397.654
589.029
409.24
311.825
311.825
397.654
409.24
311.825
409.24
397.654
397.654
311.825
312.032
409.24
583.172
409.24
311.825
409.24
409.24
312.032
312.032
312.032
312.032
397.654
409.24
409.24
409.24
312.032
311.825
312.032
311.825
397.654
397.654
397.654
397.654
409.24
397.654
397.654
302.633
311.872
311.825
311.825
409.24
409.24
397.654
397.654
397.654
311.825
537.866
312.032
312.032
311.825
409.24
409.24
311.825
312.032
311.825
409.24
312.032
397.654
397.654
311.825
311.825
311.825
311.825
312.032
312.032
312.032
312.032
311.825
311.825
541.332
311.825
397.654
312.032
397.654
397.654
531.937
311.825
311.825
583.929
312.032
397.654
409.24
397.654
409.24
311.825
397.654
543.689
311.825
300.955
409.24
397.654
397.654
545.193
311.825
311.825
311.825
409.24
301.143
303.961
311.825
580.659
579.521
311.825
309.95
312.032
312.032
311.825
312.032
409.24
311.825
300.788
312.032
397.654
397.654
397.654
397.654
397.654
311.825
580.045
575.971
397.654
397.654
397.654
307.425
306.339
311.825
397.654
311.825
311.825
311.825
311.825
312.032
397.654
397.654
409.24
311.825
397.654
311.825
409.24
311.825
540.858
532.615
397.654
312.032
409.24
409.24
312.032
409.24
303.052
397.654
306.339
312.032
312.032
578.289
312.032
397.654
409.24
311.825
397.654
311.825
311.825
312.032
312.032
312.032
397.654
312.032
564.409
409.24
301.379
409.24
409.24
557.361
311.825
397.654
537.853
397.654
311.825
409.24
397.654
312.032
311.825
311.825
409.24
397.654
300.808
397.654
397.654
312.032
409.24
397.654
409.24
397.654
409.24
397.654
397.654
302.611
312.032
397.654
409.24
311.825
311.825
409.24
397.654
312.032
304.279
312.032
397.654
397.654
311.825
409.24
397.654
409.24
301.599
311.825
311.825
307.755
312.032
312.032
312.032
311.825
397.654
409.24
543.241
540.155
409.24
397.654
312.032
397.654
312.032
304.571
397.654
311.825
312.032
409.24
409.24
302.315
397.654
397.654
312.032
397.654
547.146
397.654
397.654
409.24
397.654
409.24
397.654
397.654
312.032
409.24
409.24
397.654
409.24
312.032
303.984
312.032
312.032
397.654
409.24
311.825
397.654
397.654
409.24
311.825
311.825
397.654
409.24
312.032
311.825
409.24
397.654
409.24
409.24
397.654
311.825
397.654
409.24
312.032
312.032
397.654
409.24
311.825
311.825
397.654
409.24
397.654
397.654
580.929
311.825
312.032
312.032
312.032
312.032
397.654
311.825
311.825
312.032
397.654
409.24
397.654
409.24
312.032
311.825
311.825
311.825
397.654
397.654
397.654
311.825
397.654
301.206
409.24
311.825
397.654
312.032
311.825
397.654
586.527
537.745
311.825
397.654
397.654
409.24
311.825
397.654
311.825
397.654
574.562
312.032
311.825
409.24
397.654
311.825
312.032
312.032
312.943
311.825
397.654
312.032
311.825
397.654
397.654
311.825
311.825
397.654
397.654
540.44
311.825
311.825
397.654
311.825
312.032
397.654
312.032
301.507
572.293
409.24
397.654