<?xml version="1.0"?>
<VTKFile type="ImageData" version="0.1" byte_order="LittleEndian">
  <ImageData Origin="0 0 0" Spacing="1e-05 1e-05 1e-05" WholeExtent="0 191 0 191 0 0">
    <Piece Extent="0 191 0 191 0 0">
      <CellData Scalars="T">
        <DataArray type="Float32" Name="T" format="ascii" NumberOfComponents="1">
658.536
15000
15000
15000
15000
15000
15000
15000
15000
15000
14999.9
14999.9
14999.9
14999.9
14999.9
14999.9
14999.9
14999.9
14999.9
14999.9
14999.9
14999.9
14999.9
14999.9
14999.9
14999.9
14999.9
14999.9
15000
15000
15000
15000
15000
15000
15000
15000
15000
15000
15000
14999.9
14999.9
14999.9
14999.9
14999.9
14999.8
14999.8
14999.7
14999.7
14999.6
14999.5
14999.4
14999.2
14999
14998.8
14998.5
14998.2
14997.8
14997.3
14996.8
14996.1
14995.2
14994.2
14993.1
14991.7
14990
14988.1
14985.8
14983.2
14980.1
14976.5
14972.3
14967.4
14961.8
14955.3
14947.9
14939.4
14929.7
14918.6
14906
14891.7
14875.6
14857.4
14837
14814.1
14788.5
14759.9
14728.1
14692.9
14654
14611
14563.7
14511.8
14455
14393
14325.5
14252.3
14172.9
14087.2
13994.8
13895.6
13789.3
13675.7
13554.6
13425.8
13289.2
13144.8
12992.4
12832.1
12663.8
12487.7
12303.9
12112.5
11913.7
11707.8
11495.1
11275.9
11050.7
10819.8
10583.8
10343.2
10098.5
9850.3
9599.28
9346.04
9091.27
8835.63
8579.82
8324.54
8070.49
7818.37
7568.86
7322.64
7080.36
6842.65
6610.11
6383.32
6162.81
5949.08
5742.6
5543.77
5352.96
5170.51
4996.69
4831.72
4675.79
4529.05
4391.56
4263.39
4144.53
4034.94
3934.55
3843.23
3760.84
3687.19
3622.08
3565.25
3516.46
3475.41
3441.81
3415.34
3395.67
3382.46
3375.36
3374.01
3378.07
3387.16
3400.92
3419.01
3441.05
3466.7
3495.6
3527.42
3561.81
3598.44
3636.98
3677.1
3718.48
3760.75
3803.53
3846.33
3888.48
3928.96
3966.09
3996.87
4015.8
4012.62
3967.86
3844.08
3568.18
2993.44
1809.99
333.21
2435
15000
15000
15000
15000
15000
15000
15000
14999.9
14999.9
14999.9
14999.9
14999.9
14999.9
14999.9
14999.9
14999.9
14999.9
14999.9
14999.9
14999.9
14999.9
14999.9
14999.9
14999.9
14999.9
14999.9
14999.9
14999.9
14999.9
15000
15000
15000
15000
15000
15000
15000
15000
15000
14999.9
14999.9
14999.9
14999.9
14999.9
14999.8
14999.8
14999.7
14999.7
14999.6
14999.5
14999.4
14999.2
14999
14998.8
14998.5
14998.2
14997.8
14997.3
14996.8
14996.1
14995.2
14994.2
14993.1
14991.7
14990
14988.1
14985.8
14983.2
14980.1
14976.5
14972.3
14967.4
14961.8
14955.3
14947.9
14939.4
14929.7
14918.6
14906
14891.7
14875.6
14857.4
14837
14814.1
14788.5
14759.9
14728.2
14693
14654
14611
14563.8
14511.9
14455.1
14393.1
14325.6
14252.4
14173
14087.3
13995
13895.8
13789.5
13675.8
13554.7
13426
13289.4
13145
12992.6
12832.3
12664
12487.9
12304.1
12112.7
11913.9
11708
11495.3
11276.1
11050.9
10820
10584
10343.3
10098.6
9850.45
9599.41
9346.15
9091.35
8835.68
8579.84
8324.53
8070.45
7818.28
7568.73
7322.46
7080.13
6842.36
6609.77
6382.91
6162.34
5948.55
5741.99
5543.09
5352.22
5169.69
4995.78
4830.74
4674.73
4527.9
4390.33
4262.07
4143.13
4033.45
3932.97
3841.57
3759.09
3685.35
3620.15
3563.24
3514.36
3473.24
3439.55
3413
3393.25
3379.97
3372.79
3371.37
3375.36
3384.38
3398.09
3416.11
3438.1
3463.69
3492.55
3524.32
3558.66
3595.26
3633.76
3673.86
3715.21
3757.46
3800.22
3843
3885.15
3925.64
3962.8
3993.64
4012.76
4010.08
3966.69
3847.01
3584.47
3057.33
2059.32
490.223
2435
15000
15000
15000
15000
15000
14999.9
14999.9
14999.9
14999.9
14999.9
14999.9
14999.8
14999.8
14999.8
14999.8
14999.8
14999.8
14999.8
14999.8
14999.8
14999.8
14999.8
14999.8
14999.9
14999.9
14999.9
14999.9
14999.9
14999.9
14999.9
14999.9
15000
15000
15000
15000
15000
15000
15000
14999.9
14999.9
14999.9
14999.9
14999.9
14999.8
14999.8
14999.7
14999.7
14999.6
14999.5
14999.4
14999.2
14999
14998.8
14998.5
14998.2
14997.8
14997.3
14996.8
14996.1
14995.2
14994.2
14993.1
14991.7
14990
14988.1
14985.9
14983.2
14980.1
14976.5
14972.3
14967.4
14961.8
14955.4
14947.9
14939.4
14929.7
14918.6
14906
14891.8
14875.6
14857.5
14837.1
14814.2
14788.6
14760
14728.3
14693.1
14654.1
14611.2
14563.9
14512
14455.3
14393.3
14325.8
14252.6
14173.2
14087.5
13995.2
13896
13789.8
13676.2
13555.1
13426.3
13289.7
13145.3
12993
12832.7
12664.4
12488.4
12304.5
12113.1
11914.3
11708.4
11495.7
11276.6
11051.3
10820.4
10584.4
10343.7
10099
9850.76
9599.68
9346.38
9091.52
8835.8
8579.9
8324.52
8070.35
7818.11
7568.47
7322.1
7079.67
6841.79
6609.08
6382.11
6161.41
5947.49
5740.79
5541.75
5350.72
5168.04
4993.98
4828.78
4672.61
4525.61
4387.87
4259.44
4140.33
4030.48
3929.82
3838.25
3755.59
3681.69
3616.31
3559.23
3510.19
3468.89
3435.05
3408.34
3388.43
3374.99
3367.67
3366.11
3369.96
3378.85
3392.43
3410.34
3432.21
3457.7
3486.46
3518.14
3552.4
3588.91
3627.35
3667.38
3708.68
3750.89
3793.61
3836.37
3878.5
3919
3956.2
3987.17
4006.58
4004.58
3962.85
3847.29
3594.9
3091.28
2134.05
485.622
2435
15000
15000
15000
15000
14999.9
14999.9
14999.9
14999.8
14999.8
14999.8
14999.7
14999.7
14999.7
14999.7
14999.7
14999.7
14999.7
14999.7
14999.7
14999.7
14999.7
14999.7
14999.8
14999.8
14999.8
14999.8
14999.8
14999.9
14999.9
14999.9
14999.9
14999.9
14999.9
14999.9
15000
15000
15000
14999.9
14999.9
14999.9
14999.9
14999.9
14999.9
14999.8
14999.8
14999.7
14999.7
14999.6
14999.5
14999.4
14999.2
14999
14998.8
14998.5
14998.2
14997.8
14997.3
14996.8
14996.1
14995.2
14994.2
14993.1
14991.7
14990.1
14988.1
14985.9
14983.2
14980.1
14976.5
14972.3
14967.4
14961.8
14955.4
14948
14939.5
14929.7
14918.7
14906.1
14891.8
14875.7
14857.6
14837.1
14814.3
14788.7
14760.1
14728.4
14693.2
14654.3
14611.3
14564.1
14512.2
14455.5
14393.5
14326.1
14252.9
14173.5
14087.9
13995.6
13896.4
13790.2
13676.6
13555.5
13426.8
13290.3
13145.9
12993.5
12833.3
12665.1
12489
12305.2
12113.8
11915
11709.1
11496.4
11277.2
11051.9
10821
10585
10344.3
10099.5
9851.22
9600.08
9346.72
9091.79
8835.98
8579.98
8324.5
8070.22
7817.85
7568.08
7321.57
7078.98
6840.95
6608.07
6380.91
6160.03
5945.9
5739.01
5539.75
5348.5
5165.6
4991.31
4825.86
4669.45
4522.2
4384.21
4255.53
4136.15
4026.05
3925.13
3833.29
3750.38
3676.22
3610.59
3553.25
3503.95
3462.41
3428.32
3401.37
3381.24
3367.57
3360.03
3358.26
3361.9
3370.6
3383.99
3401.72
3423.43
3448.76
3477.36
3508.91
3543.04
3579.44
3617.78
3657.72
3698.93
3741.07
3783.74
3826.46
3868.57
3909.08
3946.33
3977.42
3997.12
3995.76
3955.37
3842.53
3594.95
3096.69
2129.63
471.406
2425.52
15000
15000
15000
14999.9
14999.9
14999.8
14999.8
14999.7
14999.7
14999.6
14999.6
14999.5
14999.5
14999.5
14999.4
14999.4
14999.4
14999.5
14999.5
14999.5
14999.5
14999.6
14999.6
14999.7
14999.7
14999.7
14999.8
14999.8
14999.8
14999.9
14999.9
14999.9
14999.9
14999.9
14999.9
14999.9
14999.9
14999.9
14999.9
14999.9
14999.9
14999.9
14999.9
14999.8
14999.8
14999.7
14999.7
14999.6
14999.5
14999.4
14999.2
14999
14998.8
14998.5
14998.2
14997.8
14997.3
14996.8
14996.1
14995.2
14994.3
14993.1
14991.7
14990.1
14988.1
14985.9
14983.2
14980.1
14976.5
14972.3
14967.5
14961.9
14955.4
14948
14939.5
14929.8
14918.7
14906.2
14891.9
14875.8
14857.7
14837.3
14814.4
14788.8
14760.3
14728.6
14693.4
14654.5
14611.6
14564.4
14512.5
14455.8
14393.9
14326.5
14253.3
14174
14088.4
13996.1
13897
13790.8
13677.2
13556.2
13427.5
13291
13146.6
12994.3
12834.1
12665.9
12489.8
12306
12114.6
11915.9
11710
11497.3
11278.1
11052.8
10821.9
10585.8
10345
10100.2
9851.84
9600.62
9347.17
9092.14
8836.22
8580.1
8324.48
8070.05
7817.52
7567.57
7320.88
7078.09
6839.84
6606.73
6379.34
6158.2
5943.82
5736.65
5537.11
5345.58
5162.37
4987.77
4822.01
4665.27
4517.7
4379.38
4250.36
4130.64
4020.19
3918.93
3826.75
3743.49
3668.98
3603.01
3545.34
3495.71
3453.84
3419.43
3392.16
3371.72
3357.75
3349.92
3347.86
3351.24
3359.67
3372.82
3390.31
3411.79
3436.91
3465.32
3496.68
3530.65
3566.89
3605.09
3644.91
3686.02
3728.06
3770.66
3813.32
3855.4
3895.9
3933.19
3964.4
3984.36
3983.5
3944.08
3832.89
3587.81
3092.15
2124.57
466.449
2404.3
15000
15000
14999.9
14999.9
14999.8
14999.7
14999.6
14999.5
14999.4
14999.3
14999.2
14999.2
14999.1
14999.1
14999.1
14999.1
14999.1
14999.1
14999.2
14999.2
14999.3
14999.3
14999.4
14999.5
14999.5
14999.6
14999.6
14999.7
14999.7
14999.8
14999.8
14999.8
14999.9
14999.9
14999.9
14999.9
14999.9
14999.9
14999.9
14999.9
14999.9
14999.9
14999.9
14999.8
14999.8
14999.7
14999.7
14999.6
14999.5
14999.4
14999.2
14999
14998.8
14998.5
14998.2
14997.8
14997.3
14996.8
14996.1
14995.2
14994.3
14993.1
14991.7
14990.1
14988.1
14985.9
14983.2
14980.1
14976.5
14972.4
14967.5
14961.9
14955.5
14948
14939.6
14929.9
14918.8
14906.2
14892
14875.9
14857.8
14837.4
14814.5
14789
14760.5
14728.8
14693.7
14654.8
14611.9
14564.7
14512.9
14456.2
14394.3
14326.9
14253.8
14174.5
14088.9
13996.7
13897.6
13791.5
13678
13557
13428.3
13291.9
13147.5
12995.3
12835
12666.9
12490.9
12307.1
12115.7
11917
11711.1
11498.4
11279.2
11053.8
10822.9
10586.7
10345.9
10101
9852.62
9601.31
9347.75
9092.59
8836.54
8580.26
8324.47
8069.86
7817.13
7566.96
7320.03
7077
6838.48
6605.1
6377.41
6155.97
5941.26
5733.75
5533.87
5341.97
5158.39
4983.41
4817.26
4660.12
4512.14
4373.4
4243.97
4123.83
4012.96
3911.27
3818.66
3734.98
3660.04
3593.65
3535.55
3485.51
3443.23
3408.42
3380.76
3359.93
3345.59
3337.39
3334.99
3338.02
3346.14
3358.97
3376.16
3397.37
3422.23
3450.39
3481.52
3515.28
3551.33
3589.36
3629.02
3669.99
3711.93
3754.43
3797.02
3839.05
3879.54
3916.85
3948.17
3968.34
3967.89
3929.17
3819.15
3575.74
3081.64
2114.77
464.094
2403.56
15000
14999.9
14999.9
14999.7
14999.6
14999.4
14999.3
14999.1
14999
14998.9
14998.8
14998.7
14998.6
14998.6
14998.6
14998.6
14998.6
14998.7
14998.7
14998.8
14998.9
14999
14999.1
14999.2
14999.3
14999.4
14999.5
14999.5
14999.6
14999.7
14999.7
14999.8
14999.8
14999.8
14999.9
14999.9
14999.9
14999.9
14999.9
14999.9
14999.9
14999.9
14999.9
14999.8
14999.8
14999.7
14999.7
14999.6
14999.5
14999.4
14999.2
14999
14998.8
14998.5
14998.2
14997.8
14997.3
14996.8
14996.1
14995.2
14994.3
14993.1
14991.7
14990.1
14988.2
14985.9
14983.3
14980.2
14976.6
14972.4
14967.5
14962
14955.5
14948.1
14939.6
14929.9
14918.9
14906.3
14892.1
14876
14857.9
14837.6
14814.7
14789.2
14760.7
14729.1
14693.9
14655.1
14612.2
14565.1
14513.3
14456.7
14394.8
14327.5
14254.4
14175.2
14089.6
13997.5
13898.4
13792.3
13678.9
13557.9
13429.3
13292.9
13148.6
12996.4
12836.2
12668.1
12492.1
12308.4
12117
11918.3
11712.4
11499.7
11280.4
11055.1
10824.1
10587.9
10347.1
10102.1
9853.56
9602.14
9348.45
9093.15
8836.93
8580.47
8324.48
8069.65
7816.68
7566.26
7319.06
7075.72
6836.9
6603.18
6375.14
6153.33
5938.24
5730.34
5530.04
5337.71
5153.69
4978.26
4811.64
4654.03
4505.57
4366.34
4236.41
4115.77
4004.39
3902.2
3809.08
3724.89
3649.45
3582.55
3523.96
3473.42
3430.65
3395.36
3367.24
3345.95
3331.16
3322.54
3319.71
3322.34
3330.07
3342.53
3359.38
3380.25
3404.79
3432.66
3463.52
3497.02
3532.85
3570.66
3610.14
3650.95
3692.74
3735.12
3777.62
3819.59
3860.05
3897.39
3928.79
3949.14
3949.04
3910.97
3802.13
3561.16
3073.41
2126.56
465.499
2428.39
15000
14999.9
14999.7
14999.5
14999.3
14999.1
14998.8
14998.6
14998.4
14998.2
14998
14997.9
14997.9
14997.8
14997.8
14997.9
14997.9
14998
14998.1
14998.2
14998.4
14998.5
14998.7
14998.8
14998.9
14999.1
14999.2
14999.3
14999.4
14999.5
14999.6
14999.7
14999.7
14999.8
14999.8
14999.9
14999.9
14999.9
14999.9
14999.9
14999.9
14999.9
14999.9
14999.8
14999.8
14999.7
14999.7
14999.6
14999.5
14999.4
14999.2
14999
14998.8
14998.6
14998.2
14997.8
14997.3
14996.8
14996.1
14995.3
14994.3
14993.1
14991.7
14990.1
14988.2
14985.9
14983.3
14980.2
14976.6
14972.4
14967.6
14962
14955.6
14948.2
14939.7
14930
14919
14906.5
14892.2
14876.2
14858.1
14837.8
14814.9
14789.4
14761
14729.4
14694.3
14655.5
14612.6
14565.5
14513.8
14457.2
14395.4
14328.1
14255.1
14175.9
14090.4
13998.3
13899.4
13793.3
13679.9
13559
13430.5
13294.1
13149.9
12997.7
12837.6
12669.5
12493.6
12309.9
12118.5
11919.8
11713.9
11501.2
11282
11056.6
10825.5
10589.3
10348.4
10103.3
9854.66
9603.11
9349.28
9093.81
8837.4
8580.74
8324.52
8069.44
7816.2
7565.48
7317.96
7074.29
6835.1
6601
6372.57
6150.33
5934.81
5726.44
5525.67
5332.85
5148.32
4972.36
4805.21
4647.06
4498.04
4358.25
4227.74
4106.52
3994.56
3891.78
3798.08
3713.3
3637.27
3569.8
3510.63
3459.52
3416.19
3380.35
3351.68
3329.87
3314.57
3305.44
3302.13
3304.29
3311.57
3323.6
3340.04
3360.52
3384.7
3412.22
3442.76
3475.97
3511.53
3549.1
3588.36
3628.97
3670.6
3712.85
3755.24
3797.13
3837.55
3874.89
3906.36
3926.88
3927.11
3889.65
3782
3543.35
3060.1
2117.87
466.219
2435
15000
14999.8
14999.6
14999.2
14998.9
14998.5
14998.1
14997.8
14997.5
14997.2
14997
14996.9
14996.8
14996.8
14996.8
14996.8
14996.9
14997.1
14997.2
14997.4
14997.6
14997.8
14998.1
14998.3
14998.5
14998.7
14998.9
14999
14999.2
14999.3
14999.4
14999.5
14999.6
14999.7
14999.8
14999.8
14999.8
14999.9
14999.9
14999.9
14999.9
14999.9
14999.9
14999.8
14999.8
14999.7
14999.7
14999.6
14999.5
14999.4
14999.2
14999
14998.8
14998.6
14998.2
14997.8
14997.4
14996.8
14996.1
14995.3
14994.3
14993.1
14991.7
14990.1
14988.2
14985.9
14983.3
14980.2
14976.6
14972.5
14967.6
14962.1
14955.6
14948.2
14939.8
14930.1
14919.1
14906.6
14892.4
14876.4
14858.3
14838
14815.2
14789.7
14761.3
14729.7
14694.7
14655.9
14613.1
14566
14514.4
14457.8
14396.1
14328.8
14255.8
14176.8
14091.3
13999.3
13900.4
13794.4
13681.1
13560.3
13431.8
13295.5
13151.4
12999.2
12839.2
12671.1
12495.2
12311.6
12120.3
11921.6
11715.7
11502.9
11283.7
11058.3
10827.2
10590.9
10349.9
10104.7
9855.94
9604.24
9350.24
9094.59
8837.97
8581.08
8324.6
8069.24
7815.69
7564.64
7316.76
7072.71
6833.12
6598.6
6369.71
6147
5930.98
5722.1
5520.79
5327.42
5142.32
4965.77
4798.02
4639.25
4489.6
4349.18
4218.02
4096.16
3983.54
3880.1
3785.73
3700.29
3623.61
3555.47
3495.66
3443.91
3399.94
3363.48
3334.2
3311.78
3295.89
3286.2
3282.34
3283.97
3290.74
3302.28
3318.25
3338.29
3362.06
3389.19
3419.37
3452.24
3487.49
3524.78
3563.79
3604.19
3645.62
3687.71
3729.97
3771.76
3812.13
3849.46
3880.99
3901.67
3902.21
3865.34
3758.68
3521.53
3040.05
2100.57
462.666
2435
15000
14999.7
14999.3
14998.8
14998.3
14997.7
14997.2
14996.7
14996.3
14995.9
14995.7
14995.5
14995.4
14995.4
14995.4
14995.5
14995.7
14995.9
14996.1
14996.4
14996.7
14997
14997.3
14997.6
14997.9
14998.2
14998.4
14998.7
14998.9
14999.1
14999.2
14999.4
14999.5
14999.6
14999.7
14999.7
14999.8
14999.8
14999.8
14999.9
14999.9
14999.9
14999.8
14999.8
14999.8
14999.7
14999.7
14999.6
14999.5
14999.4
14999.2
14999
14998.8
14998.6
14998.2
14997.8
14997.4
14996.8
14996.1
14995.3
14994.3
14993.1
14991.8
14990.1
14988.2
14986
14983.3
14980.3
14976.7
14972.5
14967.7
14962.1
14955.7
14948.3
14939.9
14930.2
14919.2
14906.7
14892.6
14876.6
14858.5
14838.2
14815.5
14790
14761.6
14730.1
14695.1
14656.4
14613.6
14566.6
14515
14458.5
14396.8
14329.7
14256.7
14177.7
14092.4
14000.4
13901.6
13795.7
13682.4
13561.7
13433.3
13297.1
13153
13000.9
12840.9
12673
12497.1
12313.5
12122.2
11923.5
11717.6
11504.9
11285.6
11060.2
10829
10592.7
10351.5
10106.3
9857.38
9605.53
9351.35
9095.49
8838.65
8581.49
8324.73
8069.06
7815.18
7563.76
7315.49
7071.02
6830.99
6595.99
6366.6
6143.37
5926.8
5717.35
5515.45
5321.47
5135.73
4958.54
4790.12
4630.67
4480.33
4339.2
4207.33
4084.74
3971.4
3867.23
3772.13
3685.96
3608.54
3539.68
3479.14
3426.67
3382
3344.84
3314.88
3291.8
3275.26
3264.93
3260.46
3261.51
3267.7
3278.7
3294.15
3313.7
3336.99
3363.7
3393.46
3425.96
3460.86
3497.83
3536.56
3576.7
3617.92
3659.82
3701.93
3743.62
3783.91
3821.23
3852.8
3873.64
3874.5
3838.21
3732.55
3496.9
3016.53
2072.05
460.884
2435
15000
14999.6
14999.1
14998.3
14997.6
14996.8
14996
14995.4
14994.8
14994.4
14994
14993.8
14993.7
14993.7
14993.7
14993.9
14994.1
14994.4
14994.7
14995.1
14995.5
14995.9
14996.3
14996.7
14997.1
14997.5
14997.9
14998.2
14998.5
14998.7
14999
14999.2
14999.3
14999.5
14999.6
14999.7
14999.7
14999.8
14999.8
14999.8
14999.8
14999.8
14999.8
14999.8
14999.8
14999.7
14999.7
14999.6
14999.5
14999.4
14999.2
14999
14998.8
14998.6
14998.2
14997.8
14997.4
14996.8
14996.1
14995.3
14994.3
14993.1
14991.8
14990.2
14988.2
14986
14983.4
14980.3
14976.7
14972.6
14967.8
14962.2
14955.8
14948.4
14940
14930.4
14919.4
14906.9
14892.8
14876.8
14858.7
14838.5
14815.8
14790.4
14762
14730.5
14695.5
14656.9
14614.2
14567.2
14515.7
14459.2
14397.6
14330.5
14257.7
14178.8
14093.5
14001.6
13902.9
13797
13683.9
13563.2
13434.9
13298.8
13154.8
13002.8
12842.9
12674.9
12499.1
12315.6
12124.3
11925.7
11719.8
11507.1
11287.8
11062.3
10831.1
10594.6
10353.4
10108
9859
9606.98
9352.6
9096.53
8839.43
8582
8324.93
8068.92
7814.67
7562.86
7314.16
7069.24
6828.72
6593.21
6363.28
6139.48
5922.32
5712.25
5509.7
5315.05
5128.63
4950.73
4781.58
4621.39
4470.29
4328.39
4195.75
4072.37
3958.23
3853.26
3757.36
3670.38
3592.17
3522.51
3461.18
3407.93
3362.49
3324.57
3293.86
3270.04
3252.79
3241.77
3236.63
3237.02
3242.59
3252.99
3267.86
3286.87
3309.65
3335.86
3365.18
3397.26
3431.77
3468.39
3506.8
3546.66
3587.63
3629.32
3671.26
3712.82
3753.03
3790.32
3821.94
3842.93
3844.13
3808.51
3704.13
3471.08
2996.9
2070.54
463.933
2435
15000
14999.5
14998.8
14997.8
14996.8
14995.8
14994.8
14993.9
14993.2
14992.6
14992.2
14991.9
14991.7
14991.7
14991.8
14992
14992.3
14992.6
14993.1
14993.6
14994.1
14994.6
14995.2
14995.7
14996.2
14996.7
14997.2
14997.6
14998
14998.3
14998.6
14998.9
14999.1
14999.3
14999.4
14999.6
14999.6
14999.7
14999.8
14999.8
14999.8
14999.8
14999.8
14999.8
14999.8
14999.7
14999.7
14999.6
14999.5
14999.4
14999.2
14999.1
14998.8
14998.6
14998.2
14997.8
14997.4
14996.8
14996.1
14995.3
14994.3
14993.2
14991.8
14990.2
14988.3
14986
14983.4
14980.3
14976.8
14972.6
14967.8
14962.3
14955.9
14948.5
14940.1
14930.5
14919.5
14907.1
14893
14877
14859
14838.8
14816.1
14790.7
14762.4
14731
14696.1
14657.4
14614.8
14567.9
14516.4
14460.1
14398.5
14331.5
14258.7
14179.9
14094.7
14002.9
13904.3
13798.5
13685.5
13564.9
13436.7
13300.6
13156.7
13004.8
12845
12677.1
12501.4
12317.8
12126.7
11928
11722.2
11509.4
11290.1
11064.6
10833.3
10596.8
10355.5
10110
9860.79
9608.59
9354.01
9097.69
8840.33
8582.6
8325.2
8068.84
7814.19
7561.96
7312.8
7067.39
6826.35
6590.28
6359.78
6135.37
5917.56
5706.82
5503.58
5308.21
5121.05
4942.39
4772.46
4611.47
4459.56
4316.83
4183.34
4059.11
3944.12
3838.29
3741.52
3653.68
3574.6
3504.07
3441.89
3387.79
3341.52
3302.77
3271.25
3246.64
3228.62
3216.84
3210.97
3210.65
3215.54
3225.28
3239.53
3257.94
3280.16
3305.84
3334.66
3366.28
3400.37
3436.6
3474.66
3514.21
3554.91
3596.36
3638.11
3679.52
3719.62
3756.87
3788.53
3809.69
3811.27
3776.4
3673.59
3443.92
2977.74
2075.45
471.323
2435
15000
14999.4
14998.5
14997.4
14996.2
14994.9
14993.7
14992.6
14991.6
14990.8
14990.3
14989.8
14989.6
14989.5
14989.6
14989.9
14990.2
14990.7
14991.2
14991.8
14992.5
14993.2
14993.9
14994.5
14995.2
14995.8
14996.4
14997
14997.5
14997.9
14998.3
14998.6
14998.9
14999.1
14999.3
14999.4
14999.6
14999.6
14999.7
14999.8
14999.8
14999.8
14999.8
14999.8
14999.8
14999.7
14999.7
14999.6
14999.5
14999.4
14999.2
14999.1
14998.8
14998.6
14998.2
14997.8
14997.4
14996.8
14996.1
14995.3
14994.3
14993.2
14991.8
14990.2
14988.3
14986.1
14983.4
14980.4
14976.8
14972.7
14967.9
14962.4
14956
14948.6
14940.2
14930.6
14919.7
14907.3
14893.2
14877.2
14859.3
14839.1
14816.5
14791.1
14762.9
14731.5
14696.6
14658
14615.5
14568.7
14517.2
14461
14399.5
14332.6
14259.9
14181.1
14096
14004.4
13905.8
13800.1
13687.2
13566.7
13438.6
13302.7
13158.8
13007
12847.2
12679.5
12503.8
12320.3
12129.2
11930.6
11724.7
11512
11292.7
11067.1
10835.8
10599.2
10357.8
10112.1
9862.76
9610.38
9355.57
9099.01
8841.36
8583.32
8325.57
8068.82
7813.76
7561.07
7311.43
7065.5
6823.9
6587.25
6356.13
6131.07
5912.58
5701.13
5497.15
5301.02
5113.07
4933.59
4762.83
4600.99
4448.21
4304.59
4170.21
4045.07
3929.16
3822.41
3724.71
3635.94
3555.94
3484.49
3421.39
3366.39
3319.21
3279.58
3247.19
3221.73
3202.88
3190.29
3183.62
3182.54
3186.7
3195.74
3209.31
3227.07
3248.68
3273.79
3302.07
3333.19
3366.81
3402.62
3440.3
3479.5
3519.9
3561.09
3602.62
3643.86
3683.85
3721.05
3752.74
3774.06
3776.03
3741.97
3640.69
3413.83
2951.91
2046.71
470.57
2435
15000
14999.4
14998.4
14997.1
14995.7
14994.2
14992.8
14991.4
14990.2
14989.2
14988.5
14987.9
14987.5
14987.4
14987.4
14987.7
14988.1
14988.6
14989.2
14989.9
14990.7
14991.6
14992.4
14993.2
14994.1
14994.8
14995.6
14996.2
14996.8
14997.4
14997.8
14998.2
14998.6
14998.9
14999.1
14999.3
14999.5
14999.6
14999.7
14999.7
14999.8
14999.8
14999.8
14999.8
14999.8
14999.7
14999.7
14999.6
14999.5
14999.4
14999.2
14999.1
14998.8
14998.6
14998.2
14997.9
14997.4
14996.8
14996.1
14995.3
14994.4
14993.2
14991.8
14990.2
14988.3
14986.1
14983.5
14980.4
14976.9
14972.8
14968
14962.5
14956.1
14948.8
14940.4
14930.8
14919.9
14907.5
14893.4
14877.5
14859.6
14839.4
14816.8
14791.6
14763.4
14732
14697.2
14658.7
14616.2
14569.5
14518.1
14461.9
14400.5
14333.7
14261.1
14182.5
14097.5
14005.9
13907.4
13801.9
13689
13568.7
13440.6
13304.8
13161.1
13009.4
12849.7
12682
12506.4
12323
12131.9
11933.3
11727.5
11514.8
11295.4
11069.8
10838.5
10601.7
10360.2
10114.4
9864.91
9612.33
9357.3
9100.47
8842.53
8584.15
8326.04
8068.89
7813.39
7560.23
7310.08
7063.6
6821.42
6584.15
6352.37
6126.62
5907.42
5695.22
5490.46
5293.52
5104.74
4924.4
4752.76
4590.02
4436.31
4291.77
4156.43
4030.33
3913.45
3805.72
3707.05
3617.3
3536.31
3463.88
3399.81
3343.84
3295.71
3255.14
3221.83
3195.46
3175.71
3162.26
3154.75
3152.86
3156.22
3164.51
3177.36
3194.43
3215.38
3239.87
3267.57
3298.15
3331.27
3366.62
3403.88
3442.71
3482.77
3523.68
3564.97
3606.01
3645.87
3683
3714.72
3736.21
3738.58
3705.33
3605.52
3381.04
2921.85
2018.4
469.253
2412.84
15000
14999.4
14998.4
14997.1
14995.5
14993.9
14992.3
14990.7
14989.2
14988
14987
14986.2
14985.7
14985.4
14985.4
14985.6
14986
14986.5
14987.2
14988
14988.9
14989.9
14990.9
14991.9
14992.8
14993.8
14994.6
14995.4
14996.2
14996.8
14997.4
14997.9
14998.3
14998.6
14998.9
14999.1
14999.3
14999.5
14999.6
14999.7
14999.7
14999.8
14999.8
14999.8
14999.8
14999.7
14999.7
14999.6
14999.5
14999.4
14999.2
14999.1
14998.8
14998.6
14998.3
14997.9
14997.4
14996.8
14996.1
14995.3
14994.4
14993.2
14991.9
14990.3
14988.4
14986.1
14983.5
14980.5
14976.9
14972.8
14968.1
14962.5
14956.2
14948.9
14940.5
14931
14920.1
14907.7
14893.7
14877.8
14859.9
14839.8
14817.2
14792
14763.9
14732.6
14697.8
14659.4
14617
14570.3
14519
14462.9
14401.6
14334.9
14262.4
14183.9
14099
14007.5
13909.2
13803.7
13691
13570.8
13442.8
13307.1
13163.5
13011.9
12852.3
12684.7
12509.2
12325.8
12134.8
11936.3
11730.5
11517.7
11298.4
11072.7
10841.3
10604.5
10362.9
10116.9
9867.25
9614.46
9359.19
9102.09
8843.84
8585.12
8326.63
8069.05
7813.1
7559.44
7308.76
7061.7
6818.92
6581
6348.54
6122.07
5902.12
5689.14
5483.56
5285.77
5096.12
4914.88
4742.32
4578.63
4423.96
4278.43
4142.1
4014.99
3897.09
3788.33
3688.63
3597.84
3515.82
3442.37
3377.27
3320.28
3271.15
3229.58
3195.29
3167.96
3147.28
3132.9
3124.51
3121.75
3124.28
3131.76
3143.84
3160.17
3180.43
3204.26
3231.34
3261.33
3293.91
3328.77
3365.57
3404
3443.7
3484.29
3525.31
3566.14
3605.84
3642.89
3674.63
3696.29
3699.1
3666.74
3568.74
3348.06
2898.07
2022.13
475.242
2363.75
15000
14999.4
14998.4
14997.1
14995.6
14993.9
14992.1
14990.3
14988.7
14987.2
14985.9
14984.9
14984.2
14983.8
14983.6
14983.7
14984.1
14984.6
14985.3
14986.2
14987.2
14988.3
14989.4
14990.5
14991.6
14992.7
14993.7
14994.6
14995.5
14996.2
14996.9
14997.5
14998
14998.4
14998.7
14999
14999.2
14999.4
14999.5
14999.6
14999.7
14999.7
14999.8
14999.8
14999.7
14999.7
14999.7
14999.6
14999.5
14999.4
14999.2
14999.1
14998.8
14998.6
14998.3
14997.9
14997.4
14996.8
14996.2
14995.3
14994.4
14993.2
14991.9
14990.3
14988.4
14986.2
14983.6
14980.5
14977
14972.9
14968.1
14962.7
14956.3
14949
14940.7
14931.2
14920.3
14907.9
14893.9
14878.1
14860.3
14840.2
14817.7
14792.5
14764.4
14733.2
14698.5
14660.1
14617.8
14571.2
14520
14464
14402.8
14336.2
14263.8
14185.4
14100.6
14009.2
13911
13805.7
13693.1
13573
13445.2
13309.6
13166.1
13014.6
12855.1
12687.6
12512.1
12328.8
12137.9
11939.4
11733.6
11520.9
11301.5
11075.9
10844.4
10607.5
10365.7
10119.6
9869.77
9616.77
9361.25
9103.87
8845.3
8586.23
8327.34
8069.33
7812.9
7558.73
7307.49
7059.85
6816.43
6577.84
6344.67
6117.46
5896.72
5682.93
5476.5
5277.84
5087.27
4905.1
4731.58
4566.9
4411.23
4264.68
4127.31
3999.15
3880.18
3770.35
3669.57
3577.7
3494.6
3420.07
3353.9
3295.84
3245.65
3203.05
3167.73
3139.39
3117.72
3102.38
3093.05
3089.38
3091.03
3097.66
3108.92
3124.48
3143.99
3167.12
3193.53
3222.91
3254.92
3289.24
3325.56
3363.54
3402.85
3443.1
3483.84
3524.43
3563.95
3600.9
3632.65
3654.48
3657.74
3626.35
3530.37
3313.9
2872.81
2014.22
485.963
2301.68
15000
14999.4
14998.6
14997.3
14995.8
14994.1
14992.3
14990.4
14988.6
14986.9
14985.4
14984.2
14983.3
14982.6
14982.3
14982.3
14982.5
14983
14983.7
14984.6
14985.7
14986.8
14988
14989.2
14990.5
14991.7
14992.8
14993.8
14994.8
14995.7
14996.4
14997.1
14997.6
14998.1
14998.5
14998.8
14999.1
14999.3
14999.5
14999.6
14999.6
14999.7
14999.7
14999.7
14999.7
14999.7
14999.7
14999.6
14999.5
14999.4
14999.2
14999.1
14998.8
14998.6
14998.3
14997.9
14997.4
14996.8
14996.2
14995.4
14994.4
14993.3
14991.9
14990.3
14988.4
14986.2
14983.6
14980.6
14977.1
14973
14968.2
14962.8
14956.4
14949.2
14940.9
14931.4
14920.5
14908.2
14894.2
14878.4
14860.6
14840.6
14818.1
14793
14765
14733.8
14699.2
14660.9
14618.7
14572.1
14521.1
14465.1
14404.1
14337.5
14265.2
14186.9
14102.3
14011
13912.9
13807.8
13695.3
13575.3
13447.6
13312.1
13168.7
13017.4
12858
12690.6
12515.2
12332
12141.1
11942.7
11737
11524.2
11304.8
11079.1
10847.6
10610.6
10368.7
10122.5
9872.47
9619.25
9363.48
9105.82
8846.92
8587.48
8328.18
8069.73
7812.81
7558.11
7306.31
7058.05
6813.98
6574.7
6340.8
6112.82
5891.27
5676.64
5469.34
5269.76
5078.26
4895.12
4720.6
4554.91
4398.2
4250.58
4112.14
3982.89
3862.82
3751.87
3649.97
3556.99
3472.76
3397.11
3329.82
3270.66
3219.37
3175.68
3139.29
3109.9
3087.2
3070.85
3060.53
3055.91
3056.63
3062.37
3072.78
3087.52
3106.25
3128.63
3154.35
3183.07
3214.47
3248.23
3284.02
3321.54
3360.42
3400.3
3440.72
3481.04
3520.37
3557.2
3588.94
3610.93
3614.64
3584.23
3490.21
3277.67
2844.34
2001.12
492.684
2246.24
15000
14999.5
14998.7
14997.6
14996.2
14994.5
14992.7
14990.8
14988.9
14987.1
14985.4
14984
14982.8
14982
14981.5
14981.3
14981.4
14981.8
14982.5
14983.4
14984.4
14985.6
14986.8
14988.2
14989.5
14990.7
14992
14993.1
14994.2
14995.1
14996
14996.7
14997.3
14997.9
14998.3
14998.7
14999
14999.2
14999.4
14999.5
14999.6
14999.7
14999.7
14999.7
14999.7
14999.7
14999.7
14999.6
14999.5
14999.4
14999.2
14999.1
14998.9
14998.6
14998.3
14997.9
14997.4
14996.9
14996.2
14995.4
14994.4
14993.3
14991.9
14990.3
14988.5
14986.3
14983.7
14980.7
14977.2
14973.1
14968.3
14962.9
14956.6
14949.3
14941
14931.6
14920.7
14908.5
14894.5
14878.8
14861
14841
14818.6
14793.6
14765.6
14734.5
14700
14661.7
14619.6
14573.1
14522.2
14466.3
14405.4
14338.9
14266.8
14188.6
14104.1
14012.9
13915
13809.9
13697.6
13577.7
13450.2
13314.8
13171.6
13020.3
12861
12693.8
12518.5
12335.4
12144.5
11946.1
11740.5
11527.7
11308.3
11082.6
10851
10613.9
10372
10125.6
9875.35
9621.91
9365.89
9107.93
8848.7
8588.88
8329.17
8070.26
7812.85
7557.61
7305.22
7056.33
6811.59
6571.61
6336.95
6108.19
5885.81
5670.31
5462.11
5261.6
5069.13
4885
4709.46
4542.72
4384.94
4236.23
4096.68
3966.3
3845.1
3733.01
3629.95
3535.81
3450.42
3373.61
3305.17
3244.86
3192.44
3147.62
3110.12
3079.64
3055.86
3038.47
3027.13
3021.51
3021.27
3026.08
3035.59
3049.47
3067.38
3088.99
3113.97
3141.99
3172.74
3205.9
3241.15
3278.16
3316.59
3356.07
3396.14
3436.18
3475.29
3511.98
3543.69
3565.82
3569.95
3540.42
3448.07
3238.38
2808.86
1965.47
476.607
2216.15
15000
14999.6
14998.9
14997.9
14996.6
14995.1
14993.3
14991.4
14989.5
14987.6
14985.8
14984.3
14983
14981.9
14981.2
14980.9
14980.9
14981.1
14981.7
14982.5
14983.5
14984.7
14986
14987.3
14988.7
14990
14991.3
14992.5
14993.7
14994.7
14995.6
14996.4
14997.1
14997.7
14998.1
14998.5
14998.9
14999.1
14999.3
14999.5
14999.6
14999.7
14999.7
14999.7
14999.7
14999.7
14999.6
14999.6
14999.5
14999.4
14999.2
14999.1
14998.9
14998.6
14998.3
14997.9
14997.4
14996.9
14996.2
14995.4
14994.4
14993.3
14992
14990.4
14988.5
14986.3
14983.7
14980.7
14977.2
14973.2
14968.4
14963
14956.7
14949.5
14941.2
14931.8
14921
14908.7
14894.8
14879.1
14861.4
14841.5
14819.1
14794.1
14766.2
14735.2
14700.7
14662.6
14620.5
14574.2
14523.3
14467.6
14406.7
14340.4
14268.4
14190.3
14105.9
14014.9
13917.1
13812.2
13700
13580.3
13452.9
13317.7
13174.5
13023.4
12864.2
12697.1
12521.9
12338.9
12148.1
11949.8
11744.1
11531.4
11312
11086.3
10854.6
10617.5
10375.3
10128.8
9878.4
9624.75
9368.46
9110.21
8850.64
8590.44
8330.31
8070.94
7813.01
7557.22
7304.23
7054.71
6809.29
6568.58
6333.16
6103.59
5880.37
5663.99
5454.87
5253.41
5059.95
4874.8
4698.22
4530.4
4371.52
4221.7
4081.01
3949.49
3827.11
3713.85
3609.61
3514.28
3427.7
3349.7
3280.07
3218.58
3164.98
3119.01
3080.36
3048.75
3023.87
3005.39
2993
2986.34
2985.11
2988.94
2997.52
3010.51
3027.56
3048.36
3072.56
3099.86
3129.93
3162.46
3197.12
3233.6
3271.55
3310.6
3350.29
3390.02
3428.88
3465.41
3497.07
3519.32
3523.82
3495.08
3404.17
3196.71
2770.14
1929.34
469.505
2219.45
15000
14999.6
14999
14998.2
14997
14995.6
14994
14992.2
14990.3
14988.5
14986.6
14985
14983.6
14982.4
14981.5
14981
14980.8
14981
14981.4
14982.1
14983.1
14984.2
14985.4
14986.8
14988.1
14989.5
14990.8
14992.1
14993.3
14994.3
14995.3
14996.1
14996.9
14997.5
14998
14998.4
14998.8
14999.1
14999.3
14999.4
14999.5
14999.6
14999.7
14999.7
14999.7
14999.7
14999.6
14999.6
14999.5
14999.4
14999.2
14999.1
14998.9
14998.6
14998.3
14997.9
14997.4
14996.9
14996.2
14995.4
14994.5
14993.3
14992
14990.4
14988.6
14986.4
14983.8
14980.8
14977.3
14973.3
14968.6
14963.1
14956.9
14949.7
14941.4
14932
14921.2
14909
14895.2
14879.5
14861.8
14841.9
14819.6
14794.7
14766.9
14735.9
14701.5
14663.5
14621.5
14575.3
14524.5
14468.9
14408.1
14341.9
14270
14192.1
14107.8
14017
13919.3
13814.6
13702.5
13582.9
13455.7
13320.6
13177.6
13026.6
12867.6
12700.5
12525.5
12342.5
12151.8
11953.6
11748
11535.3
11315.9
11090.1
10858.4
10621.1
10378.9
10132.2
9881.63
9627.75
9371.21
9112.65
8852.74
8592.16
8331.6
8071.76
7813.32
7556.97
7303.38
7053.21
6807.1
6565.65
6329.46
6099.06
5874.99
5657.71
5447.65
5245.22
5050.76
4864.58
4686.93
4518.02
4358.03
4207.07
4065.22