<?xml version="1.0"?>
<VTKFile type="ImageData" version="0.1" byte_order="LittleEndian">
  <ImageData Origin="0 0 0" Spacing="1e-05 1e-05 1e-05" WholeExtent="0 191 0 191 0 0">
    <Piece Extent="0 191 0 191 0 0">
      <CellData Scalars="T">
        <DataArray type="Float32" Name="T" format="ascii" NumberOfComponents="1">
477.633
15000
15000
15000
15000
15000
14999.9
14999.9
14999.8
14999.7
14999.5
14999.3
14999
14998.6
14998.1
14997.3
14996.3
14995
14993.3
14991.1
14988.2
14984.5
14979.9
14974
14966.7
14957.5
14946.3
14932.6
14915.8
14895.6
14871.3
14842.3
14807.9
14767.3
14719.8
14664.6
14600.7
14527.2
14443.2
14347.8
14240
14118.9
13983.8
13833.8
13668.3
13486.6
13288.5
13073.5
12841.6
12592.8
12327.4
12045.9
11748.9
11437.2
11112
10774.6
10426.4
10068.9
9704.07
9333.65
8959.65
8584.1
8209.05
7836.58
7468.71
7107.41
6754.55
6411.89
6081.05
5763.48
5460.46
5173.1
4902.27
4648.69
4412.84
4195.05
3995.42
3813.9
3650.29
3504.22
3375.21
3262.68
3165.93
3084.22
3016.75
2962.67
2921.13
2891.26
2872.22
2863.17
2863.3
2871.85
2888.09
2911.33
2940.93
2976.31
3016.91
3062.24
3111.83
3165.26
3222.14
3282.1
3344.79
3409.9
3477.12
3546.15
3616.69
3688.46
3761.17
3834.53
3908.23
3981.99
4055.5
4128.45
4200.53
4271.44
4340.86
4408.5
4474.06
4537.25
4597.81
4655.49
4710.06
4761.3
4809.04
4853.13
4893.44
4929.88
4962.39
4990.92
5015.48
5036.07
5052.75
5065.58
5074.63
5080.01
5081.81
5080.15
5075.13
5066.88
5055.5
5041.1
5023.78
5003.64
4980.77
4955.25
4927.17
4896.61
4863.67
4828.42
4790.99
4751.49
4710.04
4666.82
4621.99
4575.76
4528.36
4480.04
4431.08
4381.77
4332.42
4283.38
4234.97
4187.54
4141.43
4096.98
4054.5
4014.3
3976.66
3941.82
3909.99
3881.35
3856.04
3834.14
3815.68
3800.67
3789.03
3780.63
3775.23
3772.49
3771.83
3772.31
3772.34
3769.09
3757.4
3727.67
3661.86
3525.43
3251.55
2707.9
1622.61
316.899
892.794
15000
15000
15000
15000
15000
14999.9
14999.9
14999.8
14999.7
14999.5
14999.3
14999
14998.6
14998.1
14997.3
14996.3
14995
14993.3
14991.1
14988.2
14984.5
14979.9
14974
14966.7
14957.6
14946.3
14932.6
14915.8
14895.6
14871.3
14842.3
14807.9
14767.4
14720
14664.7
14600.8
14527.4
14443.4
14348
14240.2
14119.2
13984.1
13834.2
13668.7
13487.1
13289
13074.1
12842.2
12593.5
12328.1
12046.6
11749.6
11438
11112.9
10775.4
10427.2
10069.8
9704.87
9334.42
8960.37
8584.75
8209.64
7837.08
7469.11
7107.69
6754.7
6411.89
6080.9
5763.16
5459.97
5172.42
4901.41
4647.63
4411.58
4193.58
3993.74
3812.02
3648.21
3501.94
3372.73
3260
3163.06
3081.17
3013.51
2959.26
2917.55
2887.53
2868.34
2859.14
2859.13
2867.55
2883.66
2906.78
2936.26
2971.53
3012.03
3057.26
3106.76
3160.1
3216.89
3276.76
3339.38
3404.43
3471.58
3540.56
3611.06
3682.79
3755.47
3828.81
3902.51
3976.27
4049.79
4122.77
4194.88
4265.84
4335.32
4403.03
4468.67
4531.95
4592.61
4650.4
4705.08
4756.44
4804.31
4848.52
4888.96
4925.53
4958.16
4986.82
5011.49
5032.21
5049
5061.93
5071.07
5076.53
5078.41
5076.81
5071.85
5063.64
5052.3
5037.92
5020.62
5000.49
4977.62
4952.1
4924.01
4893.44
4860.48
4825.23
4787.78
4748.25
4706.8
4663.56
4618.73
4572.49
4525.09
4476.78
4427.82
4378.52
4329.2
4280.17
4231.79
4184.39
4138.31
4093.9
4051.46
4011.3
3973.69
3938.89
3907.1
3878.49
3853.21
3831.33
3812.91
3797.92
3786.29
3777.9
3772.51
3769.77
3769.11
3769.59
3769.63
3766.41
3754.81
3725.39
3660.46
3526.7
3261.47
2748.38
1780.26
334.002
888.941
15000
15000
15000
15000
15000
14999.9
14999.9
14999.8
14999.7
14999.5
14999.3
14999
14998.6
14998.1
14997.3
14996.3
14995
14993.3
14991.1
14988.2
14984.5
14979.9
14974
14966.7
14957.6
14946.4
14932.6
14915.9
14895.7
14871.4
14842.5
14808.1
14767.6
14720.2
14665
14601.2
14527.8
14443.8
14348.5
14240.8
14119.9
13984.9
13835
13669.6
13488.1
13290.1
13075.3
12843.5
12594.8
12329.6
12048.1
11751.2
11439.6
11114.5
10777.1
10428.9
10071.4
9706.46
9335.94
8961.8
8586.07
8210.8
7838.07
7469.89
7108.24
6755
6411.91
6080.61
5762.55
5459.01
5171.1
4899.7
4645.53
4409.09
4190.68
3990.44
3808.31
3644.08
3497.41
3367.8
3254.68
3157.36
3075.1
3007.09
2952.5
2910.46
2880.11
2860.62
2851.13
2850.84
2858.99
2874.85
2897.72
2926.98
2962.02
3002.31
3047.34
3096.64
3149.8
3206.42
3266.14
3328.61
3393.52
3460.55
3529.42
3599.83
3671.49
3744.12
3817.42
3891.1
3964.86
4038.41
4111.43
4183.62
4254.67
4324.27
4392.11
4457.91
4521.37
4582.23
4640.23
4695.13
4746.73
4794.84
4839.31
4880.01
4916.83
4949.71
4978.62
5003.54
5024.48
5041.49
5054.62
5063.96
5069.58
5071.61
5070.14
5065.29
5057.17
5045.9
5031.58
5014.31
4994.2
4971.34
4945.81
4917.71
4887.12
4854.13
4818.84
4781.36
4741.81
4700.32
4657.06
4612.21
4565.97
4518.57
4470.26
4421.33
4372.05
4322.77
4273.79
4225.46
4178.11
4132.1
4087.76
4045.39
4005.3
3967.77
3933.04
3901.32
3872.79
3847.57
3825.75
3807.37
3792.42
3780.83
3772.46
3767.08
3764.35
3763.68
3764.16
3764.2
3761.02
3749.57
3720.57
3656.72
3525.75
3267.67
2772.25
1843.86
334.174
888.511
15000
15000
15000
15000
15000
14999.9
14999.9
14999.8
14999.7
14999.5
14999.3
14999
14998.6
14998.1
14997.3
14996.3
14995
14993.3
14991.1
14988.2
14984.6
14979.9
14974.1
14966.7
14957.7
14946.5
14932.7
14916
14895.8
14871.6
14842.7
14808.3
14767.9
14720.5
14665.4
14601.6
14528.3
14444.5
14349.2
14241.6
14120.8
13985.9
13836.2
13670.9
13489.6
13291.7
13077
12845.3
12596.8
12331.7
12050.3
11753.5
11442
11116.9
10779.6
10431.3
10073.8
9708.83
9338.21
8963.93
8588.02
8212.54
7839.55
7471.08
7109.09
6755.46
6411.96
6080.21
5761.67
5457.62
5169.16
4897.21
4642.46
4405.42
4186.41
3985.56
3802.82
3637.99
3490.71
3360.51
3246.81
3148.93
3066.11
2997.57
2942.46
2899.93
2869.11
2849.15
2839.23
2838.52
2846.27
2861.74
2884.25
2913.16
2947.87
2987.84
3032.56
3081.58
3134.47
3190.83
3250.31
3312.56
3377.26
3444.11
3512.82
3583.09
3654.63
3727.17
3800.41
3874.07
3947.84
4021.42
4094.51
4166.8
4237.99
4307.76
4375.8
4441.83
4505.56
4566.7
4625.01
4680.25
4732.2
4780.68
4825.52
4866.59
4903.8
4937.06
4966.34
4991.61
5012.9
5030.23
5043.67
5053.28
5059.17
5061.42
5060.14
5055.46
5047.48
5036.31
5022.07
5004.86
4984.78
4961.93
4936.4
4908.27
4877.65
4844.62
4809.29
4771.76
4732.17
4690.64
4647.35
4602.48
4556.23
4508.83
4460.53
4411.62
4362.39
4313.16
4264.25
4215.99
4168.74
4122.83
4078.58
4036.32
3996.35
3958.93
3924.31
3892.69
3864.26
3839.13
3817.4
3799.09
3784.2
3772.66
3764.32
3758.97
3756.23
3755.56
3756.02
3756.06
3752.92
3741.6
3712.98
3650.06
3521.25
3267.79
2780.76
1856.73
333.481
899.035
15000
15000
15000
15000
15000
14999.9
14999.9
14999.8
14999.7
14999.5
14999.3
14999
14998.6
14998.1
14997.3
14996.3
14995
14993.3
14991.1
14988.2
14984.6
14979.9
14974.1
14966.8
14957.7
14946.6
14932.9
14916.2
14896
14871.8
14842.9
14808.7
14768.3
14721
14666
14602.3
14529
14445.3
14350.2
14242.7
14122
13987.3
13837.7
13672.6
13491.5
13293.7
13079.2
12847.8
12599.4
12334.4
12053.2
11756.5
11445.1
11120.1
10782.8
10434.5
10077
9711.94
9341.2
8966.75
8590.61
8214.85
7841.53
7472.67
7110.24
6756.12
6412.08
6079.74
5760.56
5455.84
5166.68
4893.99
4638.48
4400.66
4180.86
3979.21
3795.67
3630.03
3481.96
3350.98
3236.51
3137.88
3054.34
2985.08
2929.29
2886.1
2854.64
2834.08
2823.57
2822.31
2829.53
2844.49
2866.51
2894.95
2929.21
2968.76
3013.08
3061.71
3114.23
3170.24
3229.4
3291.35
3355.78
3422.38
3490.87
3560.95
3632.34
3704.75
3777.91
3851.52
3925.29
3998.92
4072.09
4144.52
4215.88
4285.86
4354.17
4420.5
4484.57
4546.09
4604.81
4660.48
4712.89
4761.85
4807.18
4848.75
4886.46
4920.22
4949.98
4975.74
4997.48
5015.24
5029.08
5039.07
5045.29
5047.84
5046.83
5042.37
5034.57
5023.55
5009.42
4992.29
4972.26
4949.43
4923.89
4895.74
4865.08
4832
4796.61
4759.03
4719.38
4677.8
4634.47
4589.57
4543.31
4495.91
4447.64
4398.76
4349.59
4300.43
4251.6
4203.46
4156.32
4110.53
4066.43
4024.31
3984.48
3947.2
3912.73
3881.25
3852.95
3827.95
3806.32
3788.11
3773.3
3761.82
3753.53
3748.19
3745.46
3744.78
3745.22
3745.23
3742.1
3730.88
3702.54
3640.3
3512.86
3261.55
2775.79
1846.24
332.62
902.651
15000
15000
15000
15000
15000
14999.9
14999.9
14999.8
14999.7
14999.5
14999.3
14999
14998.6
14998.1
14997.3
14996.3
14995
14993.3
14991.1
14988.3
14984.6
14980
14974.2
14966.9
14957.8
14946.7
14933
14916.4
14896.2
14872.1
14843.2
14809
14768.7
14721.5
14666.6
14603
14529.9
14446.3
14351.3
14244
14123.5
13989
13839.6
13674.7
13493.7
13296.3
13081.9
12850.7
12602.5
12337.7
12056.7
11760.2
11448.9
11124
10786.7
10438.5
10080.9
9715.77
9344.89
8970.23
8593.82
8217.73
7844
7474.67
7111.71
6756.99
6412.29
6079.23
5759.29
5453.75
5163.72
4890.13
4633.69
4394.92
4174.15
3971.51
3786.98
3620.36
3471.31
3339.37
3223.95
3124.38
3039.93
2969.8
2913.16
2869.14
2836.9
2815.58
2804.35
2802.39
2808.94
2823.26
2844.67
2872.52
2906.23
2945.24
2989.05
3037.19
3089.25
3144.83
3203.58
3265.15
3329.23
3395.52
3463.72
3533.56
3604.75
3677.01
3750.06
3823.61
3897.36
3971.03
4044.3
4116.88
4188.44
4258.69
4327.31
4394
4458.48
4520.46
4579.68
4635.88
4688.86
4738.4
4784.33
4826.52
4864.84
4899.22
4929.59
4955.93
4978.23
4996.53
5010.87
5021.32
5027.96
5030.89
5030.21
5026.03
5018.47
5007.64
4993.65
4976.62
4956.66
4933.85
4908.32
4880.15
4849.44
4816.31
4780.86
4743.21
4703.49
4661.86
4618.49
4573.55
4527.27
4479.88
4431.64
4382.81
4333.71
4284.64
4235.93
4187.91
4140.92
4095.29
4051.35
4009.41
3969.76
3932.66
3898.36
3867.06
3838.92
3814.06
3792.57
3774.48
3759.77
3748.36
3740.11
3734.81
3732.08
3731.37
3731.77
3731.75
3728.59
3717.42
3689.27
3627.49
3500.93
3251.11
2767.86
1843.06
331.775
903.614
15000
15000
15000
15000
15000
14999.9
14999.9
14999.8
14999.7
14999.5
14999.3
14999
14998.6
14998.1
14997.3
14996.3
14995
14993.3
14991.1
14988.3
14984.7
14980
14974.2
14967
14957.9
14946.8
14933.2
14916.6
14896.5
14872.4
14843.6
14809.5
14769.3
14722.2
14667.3
14603.9
14530.9
14447.5
14352.7
14245.6
14125.3
13990.9
13841.8
13677.1
13496.4
13299.2
13085.1
12854.1
12606.2
12341.6
12060.8
11764.4
11453.3
11128.5
10791.3
10443.1
10085.5
9720.29
9349.24
8974.34
8597.63
8221.16
7846.97
7477.1
7113.52
6758.12
6412.65
6078.76
5757.92
5451.42
5160.39
4885.75
4628.22
4388.33
4166.42
3962.62
3776.93
3609.14
3458.94
3325.85
3209.3
3108.63
3023.11
2951.93
2894.28
2849.29
2816.1
2793.88
2781.77
2778.98
2784.72
2798.28
2818.95
2846.1
2879.13
2917.5
2960.69
3008.25
3059.75
3114.81
3173.06
3234.17
3297.82
3363.72
3431.58
3501.12
3572.06
3644.12
3717.02
3790.49
3864.22
3937.92
4011.29
4084.03
4155.82
4226.36
4295.34
4362.46
4427.41
4489.92
4549.71
4606.54
4660.17
4710.4
4757.04
4799.95
4839
4874.1
4905.18
4932.22
4955.19
4974.13
4989.07
5000.07
5007.21
5010.59
5010.31
5006.47
4999.2
4988.6
4974.8
4957.9
4938.02
4915.26
4889.73
4861.54
4830.8
4797.6
4762.08
4724.36
4684.58
4642.89
4599.46
4554.5
4508.21
4460.83
4412.62
4363.85
4314.83
4265.87
4217.29
4169.43
4122.61
4077.17
4033.43
3991.69
3952.26
3915.37
3881.28
3850.18
3822.23
3797.55
3776.22
3758.26
3743.66
3732.33
3724.14
3718.86
3716.13
3715.39
3715.74
3715.65
3712.44
3701.26
3673.22
3611.75
3485.8
3236.84
2753.86
1823.44
330.562
906.591
15000
15000
15000
15000
15000
14999.9
14999.9
14999.8
14999.7
14999.5
14999.3
14999
14998.6
14998.1
14997.3
14996.4
14995.1
14993.4
14991.2
14988.3
14984.7
14980.1
14974.3
14967
14958
14946.9
14933.3
14916.8
14896.8
14872.7
14844
14810
14769.8
14722.8
14668.1
14604.8
14532
14448.8
14354.2
14247.3
14127.2
13993.1
13844.2
13679.8
13499.4
13302.4
13088.7
12857.9
12610.3
12346
12065.4
11769.3
11458.3
11133.7
10796.6
10448.4
10090.8
9725.43
9354.21
8979.06
8602.02
8225.12
7850.43
7479.96
7115.7
6759.52
6413.2
6078.37
5756.52
5448.95
5156.79
4880.95
4622.19
4381.03
4157.82
3952.71
3765.68
3596.57
3445.04
3310.64
3192.8
3090.86
3004.1
2931.72
2872.89
2826.77
2792.49
2769.21
2756.09
2752.33
2757.14
2769.8
2789.61
2815.94
2848.18
2885.78
2928.25
2975.12
3025.97
3080.41
3138.07
3198.64
3261.79
3327.23
3394.68
3463.86
3534.49
3606.31
3679.02
3752.37
3826.05
3899.77
3973.24
4046.15
4118.19
4189.05
4258.42
4326
4391.48
4454.58
4515.02
4572.55
4626.92
4677.93
4725.38
4769.11
4808.99
4844.92
4876.82
4904.65
4928.39
4948.06
4963.69
4975.34
4983.07
4986.98
4987.16
4983.73
4976.79
4966.48
4952.89
4936.15
4916.38
4893.69
4868.19
4839.99
4809.21
4775.96
4740.37
4702.58
4662.72
4620.97
4577.5
4532.5
4486.2
4438.84
4390.67
4341.98
4293.06
4244.23
4195.81
4148.12
4101.5
4056.27
4012.76
3971.26
3932.07
3895.43
3861.58
3830.7
3802.97
3778.49
3757.33
3739.52
3725.04
3713.81
3705.68
3700.42
3697.67
3696.89
3697.17
3697
3693.7
3682.48
3654.48
3593.22
3467.72
3219.4
2736.89
1807.65
330.135
901.057
15000
15000
15000
15000
15000
14999.9
14999.9
14999.8
14999.7
14999.5
14999.3
14999
14998.6
14998.1
14997.3
14996.4
14995.1
14993.4
14991.2
14988.4
14984.7
14980.2
14974.4
14967.1
14958.2
14947.1
14933.5
14917
14897
14873.1
14844.4
14810.5
14770.5
14723.6
14669
14605.9
14533.2
14450.2
14355.8
14249.1
14129.3
13995.4
13846.8
13682.8
13502.6
13306
13092.5
12862.1
12614.8
12350.8
12070.5
11774.6
11463.9
11139.4
10802.4
10454.2
10096.6
9731.16
9359.76
8984.36
8606.96
8229.61
7854.37
7483.26
7118.25
6761.24
6413.99
6078.14
5755.18
5446.43
5153.02
4875.87
4615.75
4373.18
4148.53
3941.95
3753.45
3582.86
3429.84
3293.97
3174.68
3071.32
2983.16
2909.42
2849.27
2801.86
2766.35
2741.87
2727.6
2722.72
2726.47
2738.1
2756.93
2782.31
2813.65
2850.39
2892.03
2938.1
2988.19
3041.91
3098.9
3158.84
3221.4
3286.31
3353.27
3422.03
3492.29
3563.81
3636.3
3709.49
3783.09
3856.81
3930.36
4003.44
4075.73
4146.93
4216.72
4284.79
4350.85
4414.59
4475.75
4534.04
4589.23
4641.1
4689.43
4734.08
4774.88
4811.73
4844.55
4873.27
4897.89
4918.38
4934.8
4947.17
4955.57
4960.08
4960.8
4957.84
4951.3
4941.31
4927.99
4911.45
4891.82
4869.22
4843.76
4815.56
4784.75
4751.46
4715.81
4677.94
4638.02
4596.21
4552.69
4507.67
4461.37
4414.03
4365.92
4317.31
4268.51
4219.83
4171.58
4124.09
4077.69
4032.71
3989.45
3948.22
3909.29
3872.92
3839.33
3808.72
3781.22
3756.95
3735.99
3718.35
3704
3692.87
3684.8
3679.56
3676.79
3675.96
3676.15
3675.86
3672.45
3661.15
3633.16
3572.09
3447.13
3200.19
2721.86
1807.52
330.249
900.043
15000
15000
15000
15000
15000
14999.9
14999.9
14999.8
14999.7
14999.5
14999.3
14999
14998.6
14998.1
14997.4
14996.4
14995.1
14993.4
14991.2
14988.4
14984.8
14980.2
14974.5
14967.2
14958.3
14947.3
14933.7
14917.3
14897.4
14873.4
14844.9
14811
14771.1
14724.4
14669.9
14607
14534.5
14451.6
14357.5
14251
14131.5
13997.9
13849.6
13685.9
13506.1
13309.8
13096.7
12866.6
12619.6
12355.9
12076
11780.3
11469.8
11145.5
10808.7
10460.6
10102.9
9737.42
9365.85
8990.18
8612.42
8234.6
7858.79
7487
7121.21
6763.3
6415.06
6078.12
5753.98
5443.96
5149.2
4870.64
4609.04
4364.94
4138.73
3930.56
3740.44
3568.22
3413.59
3276.1
3155.22
3050.28
2960.58
2885.33
2823.71
2774.88
2737.98
2712.17
2696.6
2690.49
2693.03
2703.51
2721.24
2745.55
2775.86
2811.62
2852.32
2897.49
2946.73
2999.63
3055.86
3115.07
3176.96
3241.25
3307.66
3375.91
3445.75
3516.91
3589.12
3662.11
3735.59
3809.29
3882.9
3956.14
4028.67
4100.21
4170.43
4239.03
4305.69
4370.12
4432.03
4491.15
4547.22
4600.02
4649.32
4694.96
4736.77
4774.63
4808.46
4838.17
4863.74
4885.15
4902.43
4915.62
4924.77
4929.96
4931.29
4928.86
4922.78
4913.17
4900.16
4883.86
4864.4
4841.91
4816.52
4788.35
4757.53
4724.2
4688.49
4650.57
4610.58
4568.72
4525.16
4480.12
4433.83
4386.52
4338.48
4289.97
4241.3
4192.78
4144.73
4097.46
4051.31
4006.59
3963.62
3922.68
3884.05
3847.97
3814.67
3784.33
3757.09
3733.06
3712.31
3694.84
3680.63
3669.6
3661.59
3656.36
3653.57
3652.66
3652.74
3652.32
3648.78
3637.37
3609.37
3548.5
3424.24
3179.08
2704.66
1794.39
330.46
898.443
15000
15000
15000
15000
15000
14999.9
14999.9
14999.8
14999.7
14999.5
14999.3
14999
14998.6
14998.1
14997.4
14996.4
14995.1
14993.4
14991.2
14988.4
14984.8
14980.3
14974.5
14967.3
14958.4
14947.4
14933.9
14917.5
14897.7
14873.8
14845.4
14811.6
14771.8
14725.2
14670.9
14608.1
14535.8
14453.2
14359.2
14253.1
14133.8
14000.6
13852.6
13689.2
13509.7
13313.8
13101.1
12871.4
12624.8
12361.4
12081.8
11786.4
11476.2
11152.1
10815.4
10467.4
10109.8
9744.16
9372.42
8996.49
8618.37
8240.08
7863.68
7491.19
7124.59
6765.75
6416.47
6078.39
5753
5441.64
5145.45
4865.39
4602.22
4356.5
4128.6
3918.73
3726.88
3552.91
3396.52
3257.29
3134.67
3028.03
2936.64
2859.74
2796.52
2746.12
2707.7
2680.42
2663.43
2655.94
2657.16
2666.37
2682.86
2705.99
2735.16
2769.82
2809.47
2853.64
2901.91
2953.9
3009.26
3067.66
3128.8
3192.39
3258.15
3325.84
3395.18
3465.92
3537.79
3610.52
3683.85
3757.48
3831.13
3904.49
3977.26
4049.14
4119.79
4188.92
4256.21
4321.35
4384.06
4444.05
4501.05
4554.83
4605.17
4651.87
4694.77
4733.73
4768.63
4799.42
4826.03
4848.45
4866.68
4880.76
4890.74
4896.68
4898.69
4896.86
4891.29
4882.12
4869.46
4853.45
4834.21
4811.87
4786.57
4758.45
4727.64
4694.29
4658.54
4620.57
4580.54
4538.63
4495.04
4449.99
4403.71
4356.46
4308.49
4260.1
4211.58
4163.24
4115.4
4068.38
4022.5
3978.07
3935.4
3894.77
3856.46
3820.7
3787.71
3757.66
3730.7
3706.92
3686.38
3669.1
3655.03
3644.1
3636.14
3630.92
3628.09
3627.09
3627.05
3626.47
3622.76
3611.23
3583.21
3522.61
3399.23
3156.26
2686.98
1794.04
330.882
896.523
15000
15000
15000
15000
15000
14999.9
14999.9
14999.8
14999.7
14999.5
14999.3
14999
14998.6
14998.1
14997.4
14996.4
14995.1
14993.4
14991.3
14988.5
14984.9
14980.3
14974.6
14967.5
14958.6
14947.6
14934.1
14917.8
14898
14874.2
14845.8
14812.2
14772.5
14726
14671.9
14609.3
14537.2
14454.8
14361.1
14255.2
14136.2
14003.3
13855.6
13692.6
13513.5
13318
13105.6
12876.3
12630.1
12367.1
12087.8
11792.8
11482.8
11159
10822.4
10474.6
10117
9751.32
9379.44
9003.26
8624.78
8246.02
7869.03
7495.83
7128.4
6768.61
6418.26
6079
5752.32
5439.57
5141.89
4860.26
4595.43
4348
4118.34
3906.66
3712.98
3537.15
3378.9
3237.8
3113.33
3004.85
2911.66
2832.98
2768.02
2715.93
2675.86
2646.98
2628.44
2619.44
2619.22
2627.02
2642.15
2663.98
2691.9
2725.35
2763.84
2806.9
2854.11
2905.08
2959.48
3016.97
3077.26
3140.06
3205.11
3272.15
3340.91
3411.16
3482.63
3555.06
3628.17
3701.69
3775.33
3848.79
3921.78
3993.97
4065.05
4134.71
4202.63
4268.5
4332.03
4392.92
4450.9
4505.72
4557.14
4604.96
4649.01
4689.13
4725.2
4757.13
4784.86
4808.36
4827.62
4842.67
4853.55
4860.33
4863.08
4861.91
4856.93
4848.25
4836.01
4820.32
4801.34
4779.19
4754.02
4725.97
4695.2
4661.85
4626.09
4588.08
4548.01
4506.07
4462.47
4417.43
4371.18
4323.99
4276.12
4227.85
4179.5
4131.36
4083.75
4036.99
3991.4
3947.28
3904.93
3864.64
3826.67
3791.24
3758.57
3728.84
3702.16
3678.64
3658.33
3641.23
3627.31
3616.48
3608.57
3603.34
3600.45
3599.35
3599.16
3598.4
3594.51
3582.83
3554.81
3494.55
3372.26
3132.16
2669.85
1790.51
331.985
892.84
15000
15000
15000
15000
15000
14999.9
14999.9
14999.8
14999.7
14999.5
14999.3
14999
14998.6
14998.1
14997.4
14996.4
14995.1
14993.5
14991.3
14988.5
14984.9
14980.4
14974.7
14967.6
14958.7
14947.8
14934.4
14918
14898.3
14874.6
14846.3
14812.8
14773.2
14726.9
14672.9
14610.4
14538.6
14456.4
14362.9
14257.3
14138.7
14006.1
13858.8
13696.1
13517.4
13322.2
13110.3
12881.4
12635.6
12373
12094.1
11799.4
11489.8
11166.2
10829.8
10482.1
10124.6
9758.87
9386.86
9010.45
8631.62
8252.4
7874.83
7500.92
7132.66
6771.91
6420.48
6080.01
5752.01
5437.83
5138.62
4855.37
4588.84
4339.63
4108.14
3894.57
3698.96
3521.18
3360.97
3217.91
3091.47
2981.05
2885.93
2805.36
2738.54
2684.63
2642.8
2612.19
2591.98
2581.36
2579.56
2585.84
2599.5
2619.91
2646.46
2678.59
2715.81
2757.65
2803.69
2853.55
2906.88
2963.37
3022.72
3084.64
3148.88
3215.19
3283.31
3352.99
3423.99
3496.04
3568.88
3642.24
3715.82
3789.35
3862.5
3934.99
4006.48
4076.66
4145.21
4211.81
4276.17
4337.98
4396.96
4452.85
4505.4
4554.4
4599.65
4640.99
4678.28
4711.42
4740.34
4765
4785.37
4801.46
4813.32
4820.99
4824.57
4824.13
4819.79
4811.66
4799.88
4784.58
4765.9
4743.98
4718.98
4691.04
4660.33
4627.01
4591.26
4553.24
4513.16
4471.21
4427.61
4382.58
4336.38
4289.26
4241.5
4193.39
4145.21
4097.29
4049.93
4003.45
3958.17
3914.37
3872.37
3832.43
3794.81
3759.73
3727.41
3697.99
3671.61
3648.35
3628.27
3611.37
3597.59
3586.84
3578.97
3573.73
3570.77
3569.54
3569.17
3568.22
3564.12
3552.28
3524.27
3464.38
3343.28
3105.96
2649.3
1779.23
332.299
889.771
15000
15000
15000
15000
15000
14999.9
14999.9
14999.8
14999.7
14999.5
14999.3
14999
14998.6
14998.1
14997.4
14996.4
14995.2
14993.5
14991.3
14988.5
14985
14980.5
14974.8
14967.7
14958.8
14947.9
14934.6
14918.3
14898.6
14875
14846.8
14813.4
14773.9
14727.7
14673.9
14611.6
14540
14458
14364.8
14259.5
14141.1
14008.9
13861.9
13699.6
13521.3
13326.6
13115.1
12886.6
12641.2
12379
12100.5
11806.2
11496.9
11173.6
10837.5
10489.9
10132.4
9766.75
9394.63
9018.01
8638.86
8259.2
7881.07
7506.47
7137.37
6775.68
6423.16
6081.48
5752.15
5436.52
5135.75
4850.84
4582.57
4331.54
4098.15
3882.63
3685.03
3505.24
3342.98
3197.86
3069.37
2956.9
2859.76
2777.2
2708.41
2652.58
2608.85
2576.41
2554.4
2542.05
2538.56
2543.2
2555.28
2574.16
2599.22
2629.93
2665.76
2706.28
2751.05
2799.69
2851.86
2907.25
2965.56
3026.52
3089.87
3155.36
3222.75
3291.79
3362.24
3433.84
3506.35
3579.47
3652.95
3726.48
3799.77
3872.51
3944.37
4015.05
4084.21
4151.54
4216.73
4279.47
4339.47
4396.45
4450.16
4500.36
4546.86
4589.47
4628.04
4662.45
4692.63
4718.5
4740.04
4757.25
4770.15
4778.79
4783.25
4783.61
4779.98
4772.46
4761.21
4746.34
4728.01
4706.37
4681.58
4653.79
4623.18
4589.93
4554.2
4516.2
4476.13
4434.19
4390.61
4345.62
4299.48
4252.46
4204.83
4156.87
4108.9
4061.21
4014.11
3967.93
3922.96
3879.51
3837.87
3798.29
3761.04
3726.33
3694.35
3665.26
3639.18
3616.2
3596.34
3579.62
3565.98
3555.32
3547.47
3542.2
3539.15
3537.77
3537.21
3536.03
3531.7
3519.69
3491.68
3432.2
3312.31
3077.79
2626.79
1769.02
332.358
887.629
15000
15000
15000
15000
15000
14999.9
14999.9
14999.8
14999.7
14999.5
14999.3
14999
14998.7
14998.1
14997.4
14996.4
14995.2
14993.5
14991.4
14988.6
14985
14980.5
14974.9
14967.8
14959
14948.1
14934.8
14918.6
14899
14875.4
14847.3
14814
14774.6
14728.6
14674.9
14612.8
14541.4
14459.7
14366.7
14261.7
14143.6
14011.7
13865.1
13703.2
13525.3
13331
13119.9
12891.9
12646.9
12385.2
12107.1
11813.1
11504.2
11181.2
10845.3
10497.9
10140.6
9774.92
9402.73
9025.93
8646.49
8266.41
7887.73
7512.46
7142.56
6779.92
6426.33
6083.45
5752.79
5435.71
5133.38
4846.79
4576.75
4323.87
4088.55
3871.05
3671.41
3489.53
3325.16
3177.92
3047.3
2932.71
2833.45
2748.8
2677.95
2620.09
2574.38
2539.98
2516.09
2501.88
2496.59
2499.49
2509.88
2527.11
2550.58
2579.75
2614.11
2653.19
2696.58
2743.91
2794.83
2849.02
2906.2
2966.09
3028.46
3093.05
3159.62
3227.93
3297.76
3368.84
3440.93
3513.77
3587.07
3660.55
3733.92
3806.86
3879.06
3950.19
4019.94
4087.98
4153.98
4217.64
4278.66
4336.74
4391.62
4443.06
4490.84
4534.75
4574.65
4610.38
4641.86
4669.01
4691.78
4710.17
4724.18
4733.86
4739.27
4740.49
4737.62
4730.78
4720.11
4705.73
4687.81
4666.5
4641.96
4614.37
4583.9
4550.74
4515.08
4477.12
4437.08
4395.18
4351.64
4306.71
4260.66
4213.75
4166.26
4118.48
4070.72
4023.28
3976.46
3930.59
3885.96
3842.86
3801.59
3762.39
3725.51
3691.17
3659.54
3630.79
3605.01
3582.3
3562.67
3546.13
3532.62
3522.03
3514.19
3508.87
3505.7
3504.16
3503.38
3501.94
3497.36
3485.17
3457.15
3398.06
3279.33
3047.28
2600.68
1748.48
331.823
880.277
15000
15000
15000
15000
15000
14999.9
14999.9
14999.8
14999.7
14999.5
14999.3
14999.1
14998.7
14998.1
14997.4
14996.4
14995.2
14993.5
14991.4
14988.6
14985.1
14980.6
14974.9
14967.9
14959.1
14948.3
14935
14918.8
14899.3
14875.8
14847.8
14814.6
14775.4
14729.4
14675.9
14614
14542.8
14461.3
14368.6
14263.9
14146.1
14014.5
13868.3
13706.8
13529.3
13335.4
13124.8
12897.2
12652.7
12391.4
12113.7
11820.2
11511.6
11188.9
10853.4
10506.2
10149
9783.36
9411.13
9034.17
8654.46
8274
7894.81
7518.9
7148.22
6784.67
6430.03
6085.96
5753.99
5435.47
5131.58
4843.32
4571.51
4316.76
4079.5
3859.98
3658.26
3474.26
3307.74
3158.32
3025.51
2908.72
2807.28
2720.46
2647.47
2587.49
2539.7
2503.27
2477.37
2461.22
2454.03
2455.08
2463.67
2479.16
2500.94
2528.47
2561.24
2598.79
2640.71
2686.62
2736.18
2789.07
2845.03
2903.77
2965.06
3028.66
3094.32
3161.83
3230.94
3301.42
3373.03
3445.49
3518.55
3591.91
3665.29
3738.38
3810.87
3882.42
3952.71
4021.42
4088.22
4152.78
4214.8
4273.98
4330.05
4382.73
4431.8
4477.05
4518.3
4555.4
4588.23
4616.7
4640.76
4660.38
4675.56
4686.33
4692.75
4694.9
4692.86
4686.76
4676.73
4662.9
4645.44
4624.5
4600.27
4572.91
4542.62
4509.6
4474.04
4436.17
4396.19
4354.35
4310.88
4266.03
4220.08
4173.3
4125.97
4078.39
4030.85
3983.67
3937.16
3891.6
3847.32
3804.59
3763.69
3724.87
3688.38
3654.41
3623.14
3594.72
3569.25
3546.8
3527.39
3511.02
3497.63
3487.09
3479.25
3473.86
3470.56
3468.82
3467.79
3466.08
3461.22
3448.82
3420.78
3362.05
3244.4
3014.55
2570.82
1713.73
330.921
874.123
15000
15000
15000
15000
15000
14999.9
14999.9
14999.8
14999.7
14999.5
14999.3
14999.1
14998.7
14998.1
14997.4
14996.5
14995.2
14993.6
14991.4
14988.7
14985.1
14980.7
14975
14968
14959.2
14948.4
14935.2
14919.1
14899.6
14876.2
14848.3
14815.1
14776.1
14730.3
14677
14615.2
14544.2
14462.9
14370.5
14266.1
14148.6
14017.4
13871.6
13710.4
13533.4
13339.9
13129.7
12902.6
12658.5
12397.7
12120.5
11827.4
11519.2
11196.9
10861.6
10514.6
10157.6
9792.04
9419.79
9042.72
8662.79
8281.97
7902.31
7525.79
7154.37
6789.94
6434.28
6089.06
5755.79
5435.85
5130.43
4840.52
4566.94
4310.33
4071.12
3849.57
3645.76
3459.62
3290.91
3139.28
3004.24
2885.21
2781.52
2692.47
2617.26
2555.09
2505.14
2466.59
2438.61
2420.42
2411.24
2410.35
2417.04
2430.69
2450.68
2476.47
2507.55
2543.48
2583.82
2628.22
2676.33
2727.84
2782.47
2839.97
2900.09
2962.6
3027.27
3093.88
3162.2
3232
3303.03
3375.04
3447.78
3520.95
3594.28
3667.45
3740.15
3812.07
3882.86
3952.19
4019.74
4085.18
4148.19
4208.45
4265.69
4319.62
4369.99
4416.59
4459.22
4497.71
4531.92
4561.76
4587.14
4608.05
4624.45
4636.37
4643.86
4646.99
4645.84
4640.54
4631.2
4617.98
4601.04
4580.53
4556.65
4529.58
4499.52
4466.67
4431.26
4393.49
4353.61
4311.86
4268.49
4223.75
4177.92
4131.29
4084.14
4036.77
3989.48
3942.57
3896.36
3851.14
3807.21
3764.85
3724.33
3685.91
3649.79
3616.2
3585.29
3557.2
3532.02
3509.83
3490.64
3474.43
3461.13
3450.64
3442.77
3437.28
3433.82
3431.87
3430.57
3428.55
3423.4
3410.77
3382.69
3324.32
3207.84
2980.94
2545.62
1721.92
331.099
857.185
15000
15000
15000
15000
15000
14999.9
14999.9
14999.8
14999.7
14999.5
14999.3
14999.1
14998.7
14998.1
14997.4
14996.5
14995.2
14993.6
14991.4
14988.7
14985.2
14980.7
14975.1
14968.1
14959.4
14948.6
14935.4
14919.4
14900
14876.6
14848.8
14815.7
14776.8
14731.2
14678
14616.4
14545.6
14464.6
14372.5
14268.3
14151.2
14020.3
13874.8
13714.1
13537.4
13344.4
13134.7
12908
12664.5
12404.1
12127.3
11834.6
11526.8
11204.9
10869.9
10523.3
10166.4
9800.96
9428.73
9051.57
8671.44
8290.31
7910.21
7533.12
7161
6795.73
6439.09
6092.75
5758.24
5436.92
5129.98
4838.44
4563.13
4304.67
4063.53
3839.96
3634.07
3445.77
3274.87
3121
2983.69
2862.38
2756.42
2665.08
2587.6
2523.18
2471.01
2430.26
2400.13
2379.82
2368.57
2365.64
2370.36
2382.07
2400.18
2424.14
2453.45
2487.65
2526.33
2569.12
2615.68
2665.71
2718.94
2775.1
2833.96
2895.3
2958.88
3024.51
3091.94
3160.96
3231.34
3302.82
3375.15
3448.06
3521.25
3594.43
3667.29
3739.49
3810.72
3880.63
3948.89
4015.16
4079.12
4140.44
4198.82
4253.99
4305.66
4353.61
4397.63
4437.52
4473.14
4504.38
4531.13
4553.36
4571.03
4584.15
4592.77
4596.93
4596.73
4592.28
4583.7
4571.14
4554.77
4534.75
4511.27
4484.53
4454.75
4422.12
4386.88
4349.27
4309.52
4267.89
4224.64
4180.03
4134.36
4087.89
4040.94
3993.79
3946.76
3900.14
3854.24
3809.36
3765.79
3723.81
3683.68
3645.64
3609.91
3576.69
3546.13
3518.36
3493.48
3471.54
3452.54
3436.47
3423.26
3412.78
3404.87
3399.27
3395.63
3393.42
3391.83
3389.48
3384
3371.12
3342.98
3284.99
3169.77
2945.79
2515.8
1694.68
330.322
851.718
15000
15000
15000
15000
15000
14999.9
14999.9
14999.8
14999.7
14999.6
14999.3
14999.1
14998.7
14998.1
14997.4
14996.5
14995.2
14993.6
14991.5
14988.7
14985.2
14980.8
14975.2
14968.2
14959.5
14948.8
14935.6
14919.6
14900.3
14877
14849.3
14816.4
14777.5
14732
14679
14617.7
14547.1
14466.3
14374.4
14270.5
14153.7
14023.2
13878.1
13717.8
13541.6
13349
13139.7
12913.6
12670.4
12410.5
12134.2
11842
11534.6
11213.1
10878.4
10532.1
10175.4
9810.1
9437.92
9060.71
8680.41
8299.01
7918.51
7540.9
7168.12
6802.05
6444.48
6097.07
5761.36
5438.7
5130.29
4837.17
4560.15
4299.88
4056.83
3831.26
3623.29
3432.86
3259.76
3103.65
2964.07
2840.46
2732.19
2638.53
2558.75
2492.03
2437.58
2394.59
2362.23
2339.74
2326.34
2321.31
2323.96
2333.66
2349.81
2371.86
2399.3
2431.69
2468.62
2509.72
2554.65
2603.11
2654.84
2709.57
2767.09
2827.16
2889.57
2954.11
3020.58
3088.74
3158.37
3229.23
3301.07
3373.62
3446.6
3519.71
3592.64
3665.07
3736.66
3807.08
3875.99
3943.04
4007.9
4070.24
4129.75
4186.12
4239.08
4288.38
4333.78
4375.08
4412.13
4444.78
4472.93
4496.51
4515.49
4529.86
4539.64
4544.89
4545.68
4542.14
4534.37
4522.53
4506.78
4487.3
4464.28
4437.92
4408.46
4376.1
4341.08
4303.66
4264.07
4222.6
4179.5
4135.05
4089.54
4043.27
3996.53
3949.63
3902.86
3856.54
3810.96
3766.43
3723.23
3681.62
3641.88
3604.23
3568.88
3536.02
3505.81
3478.36
3453.75
3432.04
3413.23
3397.29
3384.14
3373.66
3365.67
3359.93
3356.08
3353.61
3351.69
3348.98
3343.15
3329.99
3301.79
3244.15
3130.12
2908.83
2484.38
1676.33
328.802
856.927
15000
15000
15000
15000
15000
14999.9
14999.9
14999.8
14999.7
14999.6
14999.3
14999.1
14998.7
14998.1
14997.4
14996.5
14995.3
14993.6
14991.5
14988.8
14985.3
14980.9
14975.3
14968.3
14959.7
14949
14935.9
14919.9
14900.6
14877.5
14849.8
14817
14778.3
14732.9
14680.1
14618.9
14548.6
14468
14376.4
14272.8
14156.4
14026.2
13881.5
13721.5
13545.8
13353.7
13144.8
12919.2
12676.5
12417.1
12141.3
11849.5
11542.6
11221.4
10887.1
10541.1
10184.6
9819.48
9447.37
9070.14
8689.72
8308.08
7927.22
7549.12
7175.72
6808.91
6450.46
6102.03
5765.15
5441.21
5131.39
4836.72
4558.04
4296
4051.08
3823.55
3613.54
3420.99
3245.71
3087.37
2945.52
2819.62
2709.02
2613.04
2530.92
2461.88
2405.12
2359.83
2325.2
2300.47
2284.86
2277.67
2278.2
2285.81
2299.92
2319.98
2345.48
2375.99
2411.08
2450.4
2493.62
2540.43
2590.57
2643.79
2699.87
2758.59
2819.74
2883.12
2948.52
3015.72
3084.52
3154.67
3225.93
3298.04
3370.72
3443.67
3516.6
3589.17
3661.05
3731.91
3801.4
3869.17
3934.88
3998.19
4058.77
4116.32
4170.53
4221.15
4267.93
4310.64
4349.11
4383.19
4412.75
4437.72
4458.03
4473.67
4484.66
4491.04
4492.88
4490.29
4483.38
4472.31
4457.23
4438.34