<?xml version="1.0"?>
<VTKFile type="PolyData" version="0.1" byte_order="LittleEndian">
  <PolyData>
    <Piece NumberOfPoints="50000" NumberOfVerts="50000" NumberOfLines="0" NumberOfStrips="0" NumberOfPolys="0">
      <Points>
        <DataArray type="Float32" NumberOfComponents="3" format="ascii">
0.392221 0.00807941 0
-0.372895 0.00268848 0
0.380112 -0.0028572 0
0.396909 -0.00236508 0
-0.324505 0.00602009 0
-0.272672 0.00197715 0
0.13048 -0.0256511 0
-0.335252 -0.000147447 0
0.115085 -0.0200335 0
-0.0266886 0.00866867 0
0.298172 -0.0126318 0
0.378557 0.00733487 0
-0.218619 0.00676936 0
-0.155366 -0.0241662 0
-0.407376 0.00210274 0
0.307449 0.0117663 0
-0.0570901 -0.00226354 0
0.393694 0.00132895 0
0.14915 0.00118578 0
-0.373403 0.00350927 0
-0.391192 0.00529424 0
0.341192 0.00636659 0
-0.386162 0.00237307 0
0.383798 -0.000301427 0
0.244479 -0.0127141 0
0.285947 0.0124508 0
-0.383004 -0.00755431 0
0.394172 -0.00362098 0
-0.274307 0.0229435 0
-0.403082 0.00880315 0
-0.303509 0.0117224 0
-0.282227 -0.0163711 0
0.390413 0.000499492 0
0.393037 -0.00130999 0
0.0746951 0.00484837 0
0.399638 -0.00189383 0
0.121209 0.00126186 0
-0.399697 0.00237735 0
-0.374179 -0.00527812 0
-0.415854 -0.00258516 0
0.288244 0.0126868 0
0.304661 0.00581477 0
-0.381794 -0.0024151 0
0.387938 0.000408093 0
0.402045 0.00101569 0
-0.393164 0.00847721 0
0.382236 0.00457929 0
0.195957 -0.0149076 0
0.377384 6.09098e-05 0
0.386361 -0.000102762 0
0.161957 0.0209476 0
-0.385428 -0.00111273 0
-0.268098 0.00915684 0
0.38133 0.00260649 0
-0.379479 0.0023327 0
-0.404532 0.00248104 0
0.392708 -0.00151569 0
0.158488 0.0112373 0
0.29371 0.00722765 0
0.40545 -0.00506455 0
0.331107 0.00448463 0
0.396887 0.00235338 0
0.087374 -0.0317699 0
0.40542 -0.00197449 0
-0.130885 0.0165014 0
-0.378315 0.00137293 0
0.385318 -0.00112138 0
0.395886 -0.000854097 0
0.409504 0.00375289 0
0.283437 0.000766337 0
-0.382818 0.0031768 0
0.38477 0.0034607 0
0.210102 0.00101314 0
0.214823 0.0065289 0
0.183159 0.00490008 0
-0.388387 -0.00247149 0
0.33647 0.01208 0
-0.368792 0.00422873 0
0.296736 0.0065767 0
-0.40366 0.00159825 0
-0.20366 -0.0331288 0
-0.395431 0.00431464 0
0.363766 0.00481323 0
-0.384358 0.000648471 0
0.40495 -0.00484202 0
-0.385393 0.00326129 0
0.405658 -0.00474893 0
-0.173555 -0.00838964 0
-0.16794 0.0224239 0
-0.388662 -0.00695009 0
0.381296 0.00634017 0
-0.380188 -0.000592355 0
0.383237 -0.00192177 0
-0.262234 0.0190746 0
-0.0397491 -0.0213909 0
-0.342098 0.00514379 0
0.382487 0.00834126 0
-0.391991 0.00319773 0
-0.413486 0.0071882 0
-0.410122 -0.000981902 0
-0.343909 -0.00736742 0
-0.381605 -0.00548169 0
0.408335 -0.000769484 0
-0.165515 -0.0201463 0
0.411225 -0.000639476 0
0.336675 0.0122499 0
0.247648 0.00642017 0
0.0197085 0.00762304 0
0.377979 0.0042973 0
-0.386734 -0.00449101 0
-0.291793 0.0191329 0
-0.392383 0.00311004 0
-0.334951 0.0102576 0
289.096 418.194 0
0.257794 0.00707032 0
-0.386727 0.00349816 0
-0.401018 0.00433039 0
7.42671 10.1595 0
-0.38952 0.0016321 0
-0.0200107 -0.0085083 0
0.39432 -0.00149406 0
-0.375738 -0.00366473 0
0.266086 -0.00348355 0
-0.359338 0.00721091 0
0.38706 -0.000771235 0
0.376196 -0.00102314 0
0.123584 0.0231949 0
0.397646 0.00420217 0
-0.34848 -0.00669474 0
0.300095 -0.000965264 0
0.399892 -0.00318385 0
0.396698 -0.000500484 0
-0.411842 0.000743846 0
-0.343599 0.00393394 0
0.406248 -0.00185238 0
0.386122 -0.00109937 0
0.372363 -0.00280929 0
-0.0622068 0.00301237 0
0.311362 -0.0138231 0
0.302912 -0.0116254 0
0.31123 -0.0140451 0
0.369366 0.00927683 0
0.399054 -0.00339107 0
-0.0929347 -0.0136057 0
-0.399237 0.00654486 0
0.265034 -0.0219199 0
-0.25584 0.0194341 0
-0.393857 0.00193928 0
-0.281784 -0.019335 0
-0.39509 0.00358275 0
0.301182 0.00711582 0
0.383531 0.00212167 0
-0.120181 -0.0115054 0
0.312348 -0.0100752 0
0.310609 0.00806019 0
0.380301 0.00369432 0
0.260429 -0.00948089 0
-0.387147 0.00270051 0
-0.167286 -0.00584585 0
0.397921 -0.000465763 0
0.265853 -0.00167448 0
-0.351342 -0.00290592 0
-0.380383 0.00244197 0
-0.395489 0.00250618 0
-0.102509 0.00965743 0
0.306538 -0.00622286 0
0.34649 -0.00551465 0
0.350976 0.00349882 0
0.293355 0.00760602 0
-0.162752 0.000514149 0
0.409851 -0.00486264 0
-0.379168 0.00300603 0
-0.0902293 -0.00578372 0
0.396086 0.00412081 0
-0.0726405 -0.00341549 0
-0.306331 0.0152285 0
-0.380193 0.00240009 0
-0.23153 -0.0107671 0
-0.385422 -0.00228834 0
-0.387098 -0.00643024 0
0.379752 -0.000190499 0
-0.391549 0.00621242 0
-0.385606 0.00523598 0
0.39204 0.00509326 0
0.382492 -0.000994478 0
0.295794 -0.016906 0
0.410725 -0.00343585 0
0.406412 0.000315631 0
0.394043 -0.00370139 0
0.0439084 0.0286799 0
0.400766 -0.00366999 0
0.324573 -0.00896071 0
-0.261567 -0.01791 0
0.36127 0.00614886 0
-0.358363 0.00614543 0
0.379671 0.00158805 0
-0.319361 0.0113602 0
-0.340265 0.0051082 0
-0.381792 0.00370894 0
0.384439 0.00470168 0
-0.255226 0.01837 0
0.405364 0.00253531 0
0.351624 -0.00541583 0
-0.0804297 -0.0069685 0
0.41052 -0.00496143 0
-0.376264 -0.00782873 0
0.0533047 0.0464786 0
0.162682 -0.00655665 0
-0.340814 0.010358 0
-0.240258 -0.00996039 0
0.375959 0.000453609 0
-0.167727 -0.0204844 0
0.354308 -0.00366488 0
-0.329387 0.0106643 0
-0.225946 -0.0154534 0
-0.395417 0.00585816 0
-0.390146 0.00744792 0
0.389687 -0.000395868 0
-0.401096 -0.00143139 0
-0.0473686 0.0203728 0
-0.30862 0.0113559 0
-0.400264 0.00348059 0
-0.371701 -0.00629612 0
0.407101 -0.00298592 0
0.144133 0.0239514 0
-0.380419 0.00290327 0
0.409265 0.00099528 0
0.392595 -0.000928577 0
-0.3382 0.00944025 0
-0.398631 -0.000645532 0
-0.392293 -0.00379954 0
0.3819 0.00402823 0
0.199055 0.0229012 0
-0.0607828 0.0145301 0
-0.406033 0.00425204 0
-0.349637 0.00567121 0
0.300382 -0.017169 0
-0.307827 -0.00442585 0
-0.38804 0.00317634 0
0.237871 -0.00295258 0
0.40174 -0.000149249 0
-0.356262 -0.00668392 0
-0.392489 0.00321574 0
-0.227234 -0.0137403 0
0.196164 0.00656256 0
0.350824 0.00396749 0
-0.370634 0.00678278 0
0.392928 -0.000925711 0
0.404593 0.00248048 0
0.232 0.0121279 0
0.241999 0.00416562 0
-0.369088 0.00485519 0
0.379652 -0.00297391 0
-0.174845 -0.0092474 0
-0.357076 0.0078516 0
0.380198 -0.000388911 0
-0.3461 0.00765484 0
0.336573 0.00865764 0
0.145843 0.0227078 0
0.210403 0.000161581 0
0.404391 0.00077569 0
-0.368952 0.0046869 0
0.0737837 -0.00813282 0
0.0368402 -0.0137065 0
-0.26326 0.00325173 0
-0.387479 0.000961671 0
-0.381608 0.00277293 0
-0.378918 -0.00143597 0
0.389459 -0.00111889 0
0.38648 -0.000898879 0
0.398101 -0.00104513 0
-0.39094 -0.00286584 0
0.255417 0.00289437 0
0.021 0.0120688 0
-0.408317 0.00482877 0
-0.39703 0.00215503 0
0.378251 -0.000501648 0
-0.379475 0.00285478 0
0.375638 0.00623029 0
-0.384979 -0.00149328 0
-0.373367 -0.000216783 0
-0.173021 -0.0224094 0
-0.391111 0.00232265 0
0.369331 -0.00224675 0
-0.332462 0.0103613 0
-0.374492 -0.00321548 0
-0.148742 0.0192757 0
-0.389948 0.00311013 0
-0.396132 0.0036283 0
0.333103 -0.00312391 0
-0.139197 0.00651733 0
0.388918 -0.00103661 0
0.397454 -0.00295402 0
0.253416 0.0134249 0
0.403758 0.0031122 0
0.383251 0.00591859 0
0.402207 0.00399378 0
-0.268178 0.0225989 0
-0.366311 0.0019256 0
-0.407279 0.00082668 0
0.412453 0.000770163 0
-0.0552654 0.00709132 0
0.387626 -0.00184066 0
0.37829 0.0030826 0
0.399158 -0.000849777 0
0.0682929 0.011773 0
-0.205636 0.0242475 0
0.336135 0.00512244 0
-0.0472482 0.000299142 0
-0.191444 0.00900479 0
-0.320386 0.0111484 0
0.38876 0.00634686 0
-0.283684 0.0140546 0
0.359875 -0.00533394 0
0.296558 -0.00472645 0
-0.405925 0.00603664 0
0.316391 -0.0144117 0
0.408202 -0.00518411 0
0.365011 -0.00304951 0
0.39005 0.00708116 0
-0.396025 0.00515484 0
-0.0869839 0.014545 0
0.398078 0.00190465 0
0.396217 -0.00103952 0
0.182809 0.0240073 0
-0.377888 -0.000501824 0
-0.37077 0.0048217 0
0.407903 0.000362267 0
-0.379031 -0.00301676 0
0.393375 0.0022988 0
0.396186 -0.00249276 0
0.189714 -0.0228766 0
0.379558 0.00330883 0
-0.388967 0.00315925 0
-0.33282 -0.000670507 0
-0.223559 -0.00254272 0
0.0312893 -0.00761999 0
0.0472074 -0.028642 0
-0.356811 0.00320876 0
0.176473 -0.0253945 0
-0.0417429 0.0393587 0
-0.401602 0.00585781 0
-0.287079 0.0131726 0
-0.39206 0.00426875 0
-0.162613 -0.0132803 0
0.395941 0.00656173 0
-0.278777 0.0148065 0
-0.396816 -0.000102202 0
-63.8035 263.906 0
0.395079 -0.00522131 0
0.394048 -0.00119063 0
-0.323474 0.0136871 0
0.383087 0.00277309 0
0.363451 -0.0010854 0
-570.462 -1020.18 0
0.120774 0.0141436 0
-0.39276 0.0035685 0
-0.326647 -0.00246316 0
0.391268 0.00333473 0
4.03341 -8.30932 0
0.37035 0.00475571 0
-0.384387 -0.00588076 0
-0.245519 0.000191203 0
-0.390368 -0.00322856 0
-0.397995 0.00650454 0
0.388336 -0.00108188 0
-0.404235 -0.00143898 0
-0.350495 0.00885383 0
0.30477 0.0121259 0
-0.380933 1.62697e-05 0
-0.317538 0.0137013 0
-0.352246 0.00792349 0
0.392387 0.00400698 0
0.353797 -0.00686773 0
-0.234625 0.0184493 0
0.403379 -0.00211585 0
-0.392943 -0.00552121 0
-0.365598 -0.00357798 0
-0.397192 0.00119633 0
0.0342611 -0.0303565 0
-0.382395 -0.00522348 0
0.38699 0.00404123 0
-0.389773 0.00353941 0
-0.387651 0.00190327 0
-0.0956506 0.014641 0
0.253433 0.0132419 0
-0.126883 0.0353803 0
0.0833513 0.0200016 0
-0.393274 0.00377187 0
-0.0712324 0.00346641 0
-0.393986 -0.00096676 0
-0.396027 0.00531045 0
0.378254 -0.00575456 0
0.333249 0.0090918 0
-0.37054 0.00619917 0
0.351502 0.0046565 0
0.349177 0.00125113 0
-0.377906 0.00294422 0
-0.20871 -0.00692611 0
0.276243 -0.016813 0
-0.378345 0.000792072 0
0.334545 -0.00872051 0
0.153111 -0.00472034 0
-0.388922 -0.000989627 0
0.363418 -0.000660293 0
0.382304 -0.00232373 0
0.388215 -0.00465714 0
0.395508 -0.00158178 0
0.402233 -3.53823e-05 0
0.38118 0.00662554 0
-0.391438 0.00267216 0
0.281325 0.00935437 0
-0.32346 -0.00492532 0
0.184774 0.0259473 0
-0.368543 0.00263195 0
-0.131765 -0.00546343 0
-0.305699 0.0114011 0
0.111472 -0.0136646 0
-0.399586 0.00378144 0
0.38171 -0.00110148 0
-0.1078 0.0287188 0
0.136664 0.0150964 0
-0.404962 0.00327162 0
0.384474 0.00176542 0
0.396326 -0.000722705 0
0.378597 0.00833424 0
0.404728 -0.00460035 0
-0.386104 0.00315029 0
-0.39831 0.00243405 0
[...]
      <PointData Scalars="T">
        <DataArray type="Float32" Name="T" format="ascii" NumberOfComponents="1">
314.991
431.633
314.373
314.373
431.633
431.633
314.373
444.865
314.373
431.633
314.373
314.991
431.633
444.865
431.633
314.991
444.865
304.57
303.168
431.633
431.633
314.991
431.633
314.373
314.373
314.991
444.865
314.373
431.633
431.633
431.633
444.865
306.155
314.373
314.991
314.373
303.293
431.633
444.865
444.865
314.991
314.991
444.865
308.499
301.553
431.633
314.991
314.373
323.421
314.373
314.991
444.865
431.633
314.991
431.633
431.633
314.373
314.991
314.991
314.373
314.991
314.991
314.373
314.373
431.633
793.618
314.373
314.373
314.991
302.741
431.633
314.991
301.553
314.991
314.991
444.865
314.991
431.633
314.991
713.556
444.865
431.633
314.991
705.971
314.373
431.633
314.373
444.865
431.633
444.865
314.991
444.865
314.373
431.633
444.865
431.633
314.991
431.633
431.633
444.865
444.865
444.865
314.373
444.865
314.373
314.991
314.991
314.991
314.991
444.865
431.633
431.633
431.633
314.991
314.991
431.633
431.633
314.991
726.709
444.865
314.373
444.865
314.373
431.633
314.373
314.373
314.991
314.991
444.865
314.373
314.373
314.373
832.671
431.633
314.373
314.373
314.373
431.633
314.373
314.373
314.373
314.991
314.373
444.865
431.633
314.373
431.633
431.633
444.865
431.633
314.991
314.991
444.865
314.373
314.991
314.991
314.373
431.633
444.865
314.373
314.373
444.865
431.633
431.633
431.633
314.373
314.373
314.991
314.991
725.59
314.373
431.633
444.865
314.991
444.865
431.633
431.633
444.865
444.865
444.865
314.373
431.633
431.633
314.991
314.373
314.373
314.373
312.236
314.373
314.991
314.373
314.373
444.865
314.991
431.633
310.361
431.633
431.633
431.633
314.991
431.633
314.991
314.373
444.865
314.373
444.865
314.991
314.373
431.633
444.865
307.313
444.865
314.373
431.633
444.865
431.633
431.633
314.373
444.865
431.633
431.633
431.633
444.865
314.373
314.991
431.633
301.595
314.373
431.633
444.865
444.865
314.991
314.991
431.633
431.633
431.633
314.373
444.865
431.633
314.373
314.373
444.865
431.633
444.865
314.991
314.991
431.633
314.373
314.991
314.991
314.991
431.633
314.373
444.865
431.633
314.373
431.633
314.991
314.991
316.772
302.515
431.633
314.373
314.373
431.633
740.939
431.633
444.865
314.373
314.373
314.373
444.865
314.991
314.991
431.633
431.633
314.373
431.633
314.991
444.865
444.865
444.865
431.633
314.373
431.633
444.865
431.633
431.633
431.633
314.373
431.633
314.373
314.373
314.991
314.991
314.991
314.991
431.633
431.633
733.369
302.515
431.633
314.373
314.991
314.373
314.991
431.633
314.991
695.961
431.633
431.633
314.991
431.633
314.373
314.373
431.633
314.373
314.373
314.373
314.991
431.633
431.633
326.821
314.373
314.991
444.865
431.633
309.947
444.865
314.991
314.373
314.373
314.991
431.633
444.865
444.865
314.373
314.373
431.633
314.373
431.633
431.633
431.633
431.633
444.865
314.991
431.633
444.865
431.633
314.373
314.373
431.633
314.991
314.373
444.865
314.991
431.633
444.865
314.991
314.373
314.991
444.865
704.034
444.865
431.633
314.373
444.865
431.633
314.991
746.206
431.633
431.633
314.991
314.373
431.633
314.373
444.865
444.865
792.576
314.373
444.865
314.991
431.633
695.853
431.633
314.991
431.633
314.991
431.633
431.633
444.865
431.633
314.373
314.991
431.633
314.991
303.295
431.633
444.865
314.373
725.547
314.373
314.373
444.865
314.373
314.373
314.373
314.373
314.373
314.991
431.633
314.991
444.865
314.991
431.633
444.865
431.633
314.373
431.633
314.373
431.633
314.991
431.633
319.718
314.373
314.991
314.373
431.633
431.633
314.373
431.633
314.991
431.633
314.991
783.643
444.865
431.633
431.633
314.991
304.326
431.633
314.373
681.286
444.865
444.865
431.633
444.865
314.991
314.373
444.865
314.991
444.865
444.865
314.373
314.373
444.865
431.633
712.492
444.865
304.276
444.865
314.898
431.633
444.865
314.373
314.991
444.865
444.865
431.633
431.633
314.991
711.469
314.373
314.373
314.991
431.633
431.633
431.633
314.373
314.991
729.631
444.865
444.865
431.633
303.451
314.991
314.373
301.962
431.633
314.991
314.991
301.591
431.633
314.991
314.373
444.865
314.373
431.633
431.633
431.633
444.865
444.865
444.865
444.865
444.865
314.373
314.373
314.373
314.991
314.373
314.991
314.991
444.865
314.991
431.633
314.373
314.991
431.633
314.991
431.633
720.217
431.633
709.936
314.991
314.373
314.991
314.373
314.373
314.373
431.633
314.991
314.991
680.477
314.991
690.799
431.633
444.865
314.373
314.373
431.633
431.633
444.865
444.865
444.865
314.991
314.991
323.391
314.991
444.865
431.633
314.991
431.633
307.027
314.991
444.865
431.633
314.373
431.633
314.991
314.991
444.865
314.991
444.865
314.373
767.822
431.633
303.168
314.373
444.865
444.865
755.042
431.633
431.633
314.991
314.373
314.373
303.146
314.991
444.865
712.671
444.865
444.865
431.633
314.991
314.373
431.633
314.991
444.865
301.577
314.991
315.734
431.633
314.991
444.865
791.606
314.991
314.373
444.865
314.991
431.633
314.373
314.373
314.991
314.373
444.865
444.865
431.633
836.292
314.991
444.865
314.373
444.865
444.865
314.991
314.373
444.865
444.865
431.633
431.633
314.373
314.373
431.633
444.865
444.865
314.991
314.373
431.633
431.633
314.373
314.373
314.991
314.991
431.633
444.865
444.865
444.865
444.865
314.991
431.633
314.991
314.991
444.865
431.633
314.373
314.373
444.865
431.633
314.373
444.865
444.865
431.633
314.373
444.865
431.633
314.991
431.633
431.633
314.373
314.991
431.633
314.991
314.373
431.633
314.991
314.373
431.633
431.633
314.373
314.373
314.373
314.991
314.991
444.865
444.865
431.633
431.633
314.991
431.633
444.865
305.256
314.991
431.633
431.633
431.633
314.373
314.991
314.991
314.991
431.633
314.373
314.373
761.126
431.633
314.991
314.373
314.991
314.991
314.991
431.633
314.991
314.991
314.373
431.633
314.991
431.633
314.373
314.991
314.373
314.991
314.373
431.633
323.391
754.015
314.991
431.633
431.633
431.633
314.373
444.865
314.991
431.633
314.373
314.991
444.865
314.373
751.049
444.865
444.865
431.633
431.633
431.633
314.373
314.373
314.373
314.373
314.373
695.961
314.991
431.633
444.865
314.373
314.373
431.633
304.276
431.633
314.991
431.633
431.633
431.633
444.865
444.865
305.128
431.633
314.991
431.633
444.865
431.633
444.865
444.865
314.373
314.991
314.373
431.633
444.865
431.633
431.633
444.865
431.633
444.865
314.991
431.633
444.865
314.373
314.373
314.373
431.633
431.633
444.865
314.991
444.865
303.451
431.633
444.865
444.865
314.991
314.373
314.991
309.616
314.373
431.633
431.633
314.373
431.633
314.991
431.633
314.991
431.633
444.865
314.991
431.633
307.538
431.633
431.633
314.373
303.168
444.865
314.991
314.373
305.605
314.991
431.633
444.865
444.865
314.991
431.633
309.071
314.991
314.373
314.373
444.865
431.633
312.105
431.633
431.633
314.373
314.373
314.991
314.373
431.633
444.865
314.991
431.633
314.991
314.991
431.633
431.633
314.991
803.181
314.373
314.373
431.633
431.633
314.373
305.051
431.633
444.865
444.865
314.991
306.836
714.207
431.633
431.633
710.933
444.865
314.373
431.633
314.373
431.633
314.373
314.373
726.891
314.373
431.633
314.991
314.373
431.633
444.865
314.991
314.373
314.991
314.991
314.991
314.991
431.633
314.991
314.373
444.865
314.373
314.991
431.633
314.373
314.373
314.991
431.633
431.633
444.865
314.373
444.865
314.373
444.865
431.633
431.633
314.991
444.865
444.865
444.865
314.373
756.792
431.633
314.373
314.991
444.865
444.865
314.373
431.633
314.373
314.373
444.865
314.991
444.865
314.991
314.373
314.991
314.373
314.991
314.991
431.633
314.991
314.373
314.373
431.633
314.373
444.865
431.633
444.865
314.373
314.991
431.633
444.865
431.633
314.373
431.633
431.633
314.373
314.373
314.991
314.991
431.633
431.633
314.373
431.633
314.991
431.633
444.865
308.042
444.865
314.373
431.633
444.865
431.633
431.633
431.633
710.793
444.865
431.633
431.633
314.991
729.859
314.373
314.373
314.373
314.373
314.991
431.633
314.373
431.633
314.991
431.633
314.991
314.991
444.865
314.991
431.633
314.373
314.991
314.373
444.865
314.373
431.633
304.125
444.865
444.865
314.991
444.865
431.633
431.633
444.865
314.373
314.991
314.991
314.991
444.865
314.373
444.865
314.373
312.391
314.991
314.991
314.991
314.373
314.373
444.865
314.991
314.991
444.865
431.633
314.373
431.633
301.591
431.633
444.865
431.633
711.469
444.865
431.633
314.991
444.865
314.991
431.633
314.373
431.633
314.991
431.633
431.633
314.991
314.991
431.633
314.373
314.991
314.373
307.027
444.865
431.633
444.865
830.353
314.373
431.633
317.795
431.633
431.633
314.373
314.373
431.633
314.991
314.373
314.373
314.373
431.633
314.373
314.991
431.633
431.633
431.633
444.865
431.633
314.373
431.633
314.373
444.865
319.099
314.373
314.991
431.633
444.865
444.865
431.633
314.373
314.991
444.865
314.373
302.594
444.865
444.865
314.373
431.633
304.593
314.373
314.991
444.865
431.633
431.633
431.633
314.991
774.198
314.991
709.852
431.633
314.373
314.991
314.991
314.373
314.991
444.865
755.597
444.865
431.633
314.373
314.991
314.991
314.991
314.991
314.991
444.865
431.633
431.633
431.633
444.865
431.633
431.633
319.211
314.373
314.373
314.373
314.373
431.633
314.373
431.633
305.539
444.865
431.633
314.991
431.633
798.423
314.373
801.544
314.373
314.373
314.373
314.373
314.991
314.991
314.373
314.991
444.865
301.577
431.633
314.991
314.991
314.373
444.865
314.373
444.865
314.991
314.991
314.991
314.991
431.633
314.373
431.633
314.991
314.373
314.373
783.116
783.02
790.258
314.373
314.373
444.865
314.991
431.633
314.991
314.373
444.865
431.633
704.209
314.373
314.991
431.633
314.373
431.633
314.991
431.633
431.633
684.27
431.633
314.373
314.373
444.865
431.633
431.633
431.633
314.373
444.865
314.991
431.633
314.991
314.991
431.633
431.633
314.991
431.633
314.373
314.373
314.373
431.633
307.607
314.373
444.865
431.633
314.373
431.633
314.373
431.633
431.633
314.373
444.865
444.865
314.373
314.373
314.991
314.373
314.991
444.865
314.991
314.991
431.633
431.633
314.373
431.633
314.991
301.553
711.469
431.633
314.991
783.493
698.159
302.552
314.373
444.865
431.633
314.373
431.633
729.859
444.865
444.865
431.633
314.373
314.373
431.633
431.633
314.373
444.865
314.373
314.991
314.991
431.633
431.633
314.373
698.159
314.991
431.633
314.991
314.373
704.99
314.373
314.373
444.865
431.633
444.865
444.865
431.633
431.633
431.633
431.633
314.991
314.373
314.373
431.633
314.373
431.633
431.633
314.373
431.633
431.633
314.991
431.633
444.865
314.373
444.865
444.865
314.991
431.633
314.991
314.991
314.373
314.373
431.633
314.991
306.929
431.633
431.633
314.991
431.633
431.633
315.256
314.373
314.373
444.865
314.373
431.633
309.45
314.373
765.513
431.633
431.633
314.373
314.373
431.633
431.633
431.633
444.865
314.991
444.865
314.373
444.865
444.865
314.373
314.991
314.373
444.865
314.991
314.373
314.991
724.547
314.373
751.508
444.865
431.633
431.633
706.958
444.865
444.865
314.991
314.991
444.865
431.633
431.633
314.373
431.633
431.633
431.633
444.865
444.865
314.373
314.373
314.991
431.633
314.991
314.991
314.373
444.865
314.373
317.47
314.991
304.403
314.991
431.633
748.472
787.437
431.633
431.633
314.373
444.865
444.865
314.991
431.633
444.865
431.633
709.32
431.633
431.633
444.865
314.373
444.865
444.865
431.633
444.865
431.633
314.373
444.865
431.633
314.373
314.373
314.373
444.865
444.865
431.633
314.991
431.633
444.865
312.105
431.633
431.633
431.633
314.991
431.633
314.991
314.991
314.373
444.865
314.373
307.252
444.865
764.178
314.373
314.991
444.865
431.633
431.633
314.373
431.633
444.865
431.633
314.991
314.991
314.373
314.991
444.865
431.633
431.633
314.373
314.991
431.633
314.991
314.991
444.865
444.865
444.865
314.991
314.991
314.991
431.633
314.991
758.085
314.991
431.633
431.633
695.853
314.991
314.373
314.373
314.373
444.865
314.373
314.373
726.891
431.633
314.991
314.991
314.373
431.633
314.373
431.633
314.373
314.991
314.373
303.385
444.865
431.633
444.865
314.991
314.373
314.373
314.373
431.633
314.991
431.633
314.991
314.373
314.991
444.865
320.665
431.633
314.991
314.991
314.373
444.865
314.373
314.373
314.373
314.373
314.991
755.597
314.991
314.373
431.633
444.865
444.865
690.424
431.633
431.633
692.621
431.633
314.373
314.373
444.865
314.991
431.633
431.633
431.633
314.373
444.865
444.865
314.991
314.373
314.991
314.991
314.991
695.853
314.991
314.991
314.373
314.991
431.633
308.712
740.493
444.865
444.865
314.373
444.865
431.633
431.633
431.633
431.633
431.633
758.809
431.633
314.991
314.991
314.373
431.633
314.373
431.633
314.373
314.991
431.633
302.035
314.373
314.991
314.991
314.373
712.492
314.373
303.571
431.633
314.991
431.633
314.991
431.633
314.373
314.373
431.633
431.633
444.865
431.633
444.865
431.633
314.373
314.373
314.373
444.865
314.991
431.633
314.373
444.865
314.991
431.633
431.633
444.865
431.633
314.373
314.373
444.865
314.373
314.991
444.865
431.633
314.373
314.991
431.633
314.991
314.991
314.373
314.373
314.373
444.865
431.633
444.865
444.865
314.991
314.373
314.991
303.293
314.373
431.633
774.198
444.865
314.373
303.34
314.373
314.373
431.633
314.373
314.991
314.991
314.991
314.373
314.991
431.633
431.633
431.633
314.991
431.633
431.633
314.373
302.438
314.373
301.526
431.633
314.991
431.633
314.991
314.991
431.633
314.373
444.865
444.865
444.865
314.373
444.865
444.865
431.633
444.865
444.865
431.633
444.865
444.865
727.147
314.373
431.633
431.633
314.991
314.991
314.373
314.373
314.991
431.633
431.633
314.991
444.865
444.865
314.991
431.633
444.865
326.093
314.991
314.373
431.633
431.633
314.373
431.633
431.633
314.373
444.865
303.098
314.373
314.373
314.373
431.633
431.633
431.633
314.373
431.633
431.633
431.633
431.633
444.865
431.633
314.991
444.865
431.633
431.633
314.991
431.633
314.373
431.633
712.637
314.991
431.633
444.865
314.373
314.373
444.865
444.865
772.768
314.373
710.778
431.633
698.159
444.865
431.633
444.865
444.865
314.991
314.373
444.865
431.633
314.373
314.991
314.373
444.865
314.373
314.373
314.991
314.991
431.633
444.865
431.633
431.633
314.991
431.633
314.991
431.633
444.865
444.865
314.373
301.519
444.865
431.633
314.373
722.571
314.991
314.373
314.991
314.373
314.373
314.991
431.633
444.865
444.865
431.633
314.373
314.373
444.865
314.373
711.508
431.633
431.633
444.865
431.633
314.991
314.373
431.633
444.865
314.991
314.991
431.633
314.373
431.633
314.373
314.373
314.373
431.633
314.991
314.373
314.373
314.991
444.865
301.569
444.865
444.865
314.373
314.373
444.865
431.633
314.991
314.373
314.373
444.865
444.865
431.633
314.991
314.991
444.865
314.991
314.373
755.597
314.373
314.991
431.633
444.865
444.865
431.633
431.633
722.794
431.633
431.633
314.991
444.865
302.515
444.865
444.865
314.991
431.633
431.633
431.633
444.865
314.373
431.633
444.865
314.991
431.633
707.006
431.633
314.991
314.373
314.991
314.373
444.865
444.865
431.633
444.865
431.633
431.633
444.865
431.633
431.633
314.373
314.991
314.991
312.315
305.539
444.865
444.865
314.991
314.991
444.865
444.865
431.633
314.373
431.633
431.633
431.633
314.373
431.633
314.373
314.991
304.481
314.373
431.633
314.991
431.633
431.633
444.865
314.991
431.633
314.991
303.8
314.991
314.373
431.633
444.865
318.523
314.373
303.293
314.991
314.991
314.373
444.865
314.373
314.373
431.633
777.399
431.633
314.373
314.373
314.373
431.633
695.853
431.633
314.991
431.633
314.991
681.286
319.017
314.373
314.373
314.373
431.633
314.991
444.865
317.47
314.373
314.991
431.633
444.865
444.865
431.633
444.865
444.865
321.742
431.633
444.865
314.373
314.373
314.991
431.633
431.633
444.865
444.865
314.991
431.633
444.865
444.865
314.991
431.633
764.178
314.373
431.633
314.991
444.865
314.373
431.633
444.865
314.991
431.633
314.373
444.865
431.633
314.373
314.991
444.865
431.633
431.633
314.373
431.633
444.865
314.373
444.865
314.991
314.991
787.437
314.991
314.373
314.373
314.373
308.042
444.865
314.373
314.991
745.952
314.991
431.633
444.865
444.865
431.633
444.865
314.373
444.865
314.991
314.991
314.991
314.373
314.991
314.373
314.373
314.991
444.865
314.991
314.991
444.865
314.373
314.373
314.991
302.438
444.865
314.373
314.373
444.865
314.991
444.865
444.865
314.373
431.633
431.633
314.373
431.633
314.991
308.042
314.991
314.373
314.373
314.373
314.373
314.373
303.735
431.633
444.865
796.168
314.991
317.795
431.633
314.373
314.373
444.865
314.373
314.991
314.373
314.373
314.373
431.633
314.991
314.373
431.633
314.373
444.865
314.991
314.373
314.991
431.633
444.865
314.991
431.633
431.633
314.373
314.373
314.373
431.633
314.991
301.784
765.564
431.633
314.373
314.373
314.991
444.865
444.865
444.865
314.373
314.991
314.373
444.865
431.633
314.373
317.844
314.991
314.991
314.373
431.633
314.991
444.865
314.991
431.633
431.633
314.991
314.991
431.633
681.286
314.991
444.865
773.447
715.085
740.939
431.633
431.633
444.865
314.373
314.373
444.865
314.991
444.865
314.991
314.373
444.865
314.373
314.373
431.633
314.373
682.48
681.617
431.633
431.633
314.991
314.991
314.373
444.865
314.373
444.865
314.373
314.373
431.633
444.865
431.633
314.898
306.929
314.991
314.373
444.865
314.373
431.633
314.373
431.633
314.373
431.633
431.633
314.991
314.373
444.865
314.373
431.633
314.991
431.633
444.865
444.865
444.865
314.373
431.633
444.865
684.27
444.865
444.865
314.373
431.633
314.373
314.373
314.991
314.373
314.991
314.373
431.633
444.865
688.028
314.991
314.991
431.633
314.373
314.373
314.373
314.373
431.633
431.633
314.991
314.991
314.373
314.373
745.084
301.553
444.865
431.633
431.633
314.373
431.633
302.594
444.865
314.373
431.633
444.865
314.991
431.633
314.991
314.373
314.991
775.825
444.865
321.397
314.373
314.373
314.373
314.991
444.865
314.991
314.373
431.633
314.373
314.991
314.373
444.865
314.991
314.991
444.865
431.633
684.27
322.114
314.373
431.633
431.633
818.675
444.865
314.373
314.373
431.633
444.865
314.373
444.865
431.633
431.633
314.373
314.991
444.865
758.809
444.865
314.373
444.865
444.865
314.991
314.991
314.991
314.991
431.633
444.865
444.865
444.865
314.991
314.373
314.991
314.373
431.633
431.633
431.633
431.633
444.865
431.633
431.633
309.947
314.991
314.373
314.373
444.865
444.865
431.633
431.633
431.633
314.373
698.159
314.991
314.991
314.373
444.865
444.865
314.373
314.991
314.373
444.865
314.991
431.633
431.633
314.373
314.373
314.373
314.373
314.991
314.991
314.991
314.991
314.373
314.373
431.633
314.373
431.633
314.991
431.633
431.633
695.853
314.373
314.373
780.583
314.991
431.633
444.865
431.633
444.865
314.373
431.633
719.5
314.373
302.117
444.865
431.633
431.633
722.825
314.373
314.373
314.373
444.865
302.462
315.734
314.373
779.792
444.865
314.373
314.991
314.991
314.991
314.373
314.991
444.865
314.373
301.526
314.991
431.633
431.633
431.633
431.633
431.633
314.373
444.865
777.286
431.633
431.633
431.633
314.991
314.373
314.373
431.633
314.373
314.373
314.373
314.373
314.991
431.633
431.633
444.865
314.373
431.633
314.373
444.865
314.373
710.933
703.766
431.633
314.991
444.865
444.865
314.991
444.865
310.872
431.633
314.373
314.991
314.991
780.915
314.991
431.633
444.865
314.373
431.633
314.373
314.373
314.991
314.991
314.991
431.633
314.991
748.472
444.865
304.276
444.865
444.865
725.547
314.373
431.633
431.633
431.633
314.373
444.865
431.633
314.991
314.373
314.373
444.865
431.633
301.533
431.633
431.633
314.991
444.865
431.633
444.865
431.633
444.865
431.633
431.633
309.02
314.991
431.633
444.865
314.373
314.373
444.865
431.633
314.991
316.772
314.991
431.633
431.633
314.373
444.865
431.633
444.865
305.539
314.373
314.373
314.991
314.991
314.991
314.991
314.373
431.633
444.865
713.556
712.637
444.865
431.633
314.991
431.633
314.991
318.059
431.633
314.373
314.991
444.865
444.865
306.929
431.633
431.633
314.991
431.633
431.633
431.633
431.633
444.865
431.633
444.865
431.633
431.633
314.991
444.865
444.865
431.633
444.865
314.991
315.127
314.991
314.991
431.633
444.865
314.373
431.633
431.633
444.865
314.373
314.373
431.633
444.865
314.991
314.373
444.865
431.633
444.865
444.865
431.633
314.373
431.633
444.865
314.991
314.991
431.633
444.865
314.373
314.373
431.633
444.865
431.633
431.633
779.792
314.373
314.991
314.991
314.991
314.991
431.633
314.373
314.373
314.991
431.633
444.865
431.633
444.865