<?xml version="1.0"?>
<VTKFile type="ImageData" version="0.1" byte_order="LittleEndian">
  <ImageData Origin="0 0 0" Spacing="1e-05 1e-05 1e-05" WholeExtent="0 191 0 191 0 0">
    <Piece Extent="0 191 0 191 0 0">
      <CellData Scalars="T">
        <DataArray type="Float32" Name="T" format="ascii" NumberOfComponents="1">
638.375
15000
15000
15000
15000
15000
15000
15000
15000
15000
15000
15000
15000
15000
15000
15000
15000
15000
15000
15000
15000
15000
15000
15000
15000
15000
15000
15000
15000
15000
15000
15000
15000
15000
15000
14999.9
14999.9
14999.9
14999.9
14999.9
14999.8
14999.8
14999.7
14999.6
14999.5
14999.4
14999.2
14999.1
14998.8
14998.5
14998.2
14997.8
14997.3
14996.7
14995.9
14995.1
14994
14992.7
14991.2
14989.5
14987.4
14984.9
14981.9
14978.5
14974.5
14969.8
14964.4
14958.1
14950.9
14942.5
14932.9
14921.9
14909.3
14895
14878.8
14860.4
14839.7
14816.3
14790.1
14760.8
14728.1
14691.7
14651.3
14606.6
14557.3
14503
14443.5
14378.4
14307.4
14230.1
14146.3
14055.6
13957.8
13852.6
13739.8
13619.1
13490.3
13353.3
13208
13054.2
12892
12721.4
12542.4
12355.1
12159.8
11956.5
11745.6
11527.4
11302.2
11070.6
10832.9
10589.7
10341.6
10089.1
9832.93
9573.75
9312.28
9049.23
8785.35
8521.4
8258.14
7996.33
7736.74
7480.11
7227.16
6978.6
6735.12
6497.34
6265.88
6041.31
5824.15
5614.87
5413.9
5221.62
5038.34
4864.33
4699.82
4544.96
4399.87
4264.61
4139.19
4023.58
3917.71
3821.44
3734.63
3657.09
3588.58
3528.85
3477.63
3434.6
3399.46
3371.85
3351.43
3337.84
3330.7
3329.63
3334.26
3344.21
3359.08
3378.51
3402.12
3429.53
3460.38
3494.31
3530.97
3570.01
3611.11
3653.94
3698.17
3743.52
3789.67
3836.36
3883.29
3930.21
3976.86
4022.98
4068.32
4112.59
4155.48
4196.59
4235.31
4270.69
4301.06
4323.39
4332.04
4316.3
4255.76
4110.94
3804.48
3180.73
1910.55
331.225
2306.09
15000
15000
15000
15000
15000
15000
15000
15000
15000
15000
15000
15000
15000
15000
15000
15000
15000
15000
15000
15000
15000
15000
15000
15000
15000
15000
15000
15000
15000
15000
15000
15000
15000
15000
14999.9
14999.9
14999.9
14999.9
14999.9
14999.8
14999.8
14999.7
14999.6
14999.5
14999.4
14999.2
14999.1
14998.8
14998.5
14998.2
14997.8
14997.3
14996.7
14995.9
14995.1
14994
14992.7
14991.2
14989.5
14987.4
14984.9
14981.9
14978.5
14974.5
14969.9
14964.4
14958.1
14950.9
14942.5
14932.9
14921.9
14909.4
14895.1
14878.8
14860.4
14839.7
14816.4
14790.2
14760.8
14728.1
14691.7
14651.3
14606.6
14557.3
14503.1
14443.6
14378.5
14307.5
14230.2
14146.4
14055.8
13958
13852.8
13739.9
13619.2
13490.5
13353.5
13208.2
13054.4
12892.3
12721.6
12542.6
12355.4
12160
11956.7
11745.8
11527.6
11302.5
11070.8
10833.1
10589.9
10341.8
10089.3
9833.1
9573.91
9312.41
9049.33
8785.42
8521.44
8258.14
7996.3
7736.66
7479.98
7226.98
6978.37
6734.82
6496.98
6265.46
6040.82
5823.59
5614.23
5413.18
5220.82
5037.46
4863.37
4698.77
4543.82
4398.64
4263.29
4137.78
4022.08
3916.1
3819.75
3732.84
3655.2
3586.6
3526.78
3475.47
3432.35
3397.12
3369.43
3348.92
3335.25
3328.02
3326.88
3331.44
3341.31
3356.12
3375.48
3399.03
3426.38
3457.18
3491.06
3527.67
3566.68
3607.74
3650.53
3694.74
3740.05
3786.19
3832.86
3879.78
3926.69
3973.34
4019.46
4064.79
4109.08
4151.98
4193.11
4231.85
4267.27
4297.69
4320.13
4329
4313.82
4254.76
4114.27
3821.76
3247.56
2171.02
468.919
2310.39
15000
15000
15000
15000
15000
15000
15000
15000
15000
15000
15000
15000
15000
15000
15000
15000
15000
15000
15000
15000
15000
15000
15000
15000
15000
15000
15000
15000
15000
15000
15000
15000
15000
15000
14999.9
14999.9
14999.9
14999.9
14999.9
14999.8
14999.8
14999.7
14999.6
14999.5
14999.4
14999.2
14999.1
14998.8
14998.5
14998.2
14997.8
14997.3
14996.7
14995.9
14995.1
14994
14992.7
14991.2
14989.5
14987.4
14984.9
14982
14978.5
14974.5
14969.9
14964.4
14958.2
14950.9
14942.5
14932.9
14921.9
14909.4
14895.1
14878.9
14860.5
14839.8
14816.4
14790.2
14760.9
14728.2
14691.8
14651.4
14606.8
14557.5
14503.2
14443.8
14378.7
14307.7
14230.4
14146.7
14056
13958.2
13853.1
13740.2
13619.6
13490.8
13353.8
13208.5
13054.8
12892.7
12722.1
12543.1
12355.8
12160.5
11957.2
11746.3
11528.1
11303
11071.3
10833.6
10590.4
10342.2
10089.7
9833.46
9574.23
9312.68
9049.55
8785.58
8521.53
8258.16
7996.23
7736.51
7479.73
7226.63
6977.9
6734.24
6496.27
6264.62
6039.84
5822.46
5612.96
5411.76
5219.23
5035.7
4861.44
4696.67
4541.55
4396.19
4260.65
4134.96
4019.07
3912.91
3816.37
3729.27
3651.45
3582.66
3522.66
3471.16
3427.87
3392.46
3364.59
3343.92
3330.08
3322.7
3321.4
3325.81
3335.54
3350.21
3369.45
3392.87
3420.11
3450.8
3484.58
3521.1
3560.02
3601
3643.73
3687.88
3733.15
3779.24
3825.87
3872.77
3919.67
3966.3
4012.42
4057.77
4102.06
4144.99
4186.15
4224.94
4260.42
4290.95
4313.57
4322.81
4308.43
4251.23
4115.27
3833.57
3282.79
2237.96
470.37
2275.43
15000
15000
15000
15000
15000
15000
15000
15000
15000
15000
15000
15000
15000
15000
15000
15000
15000
15000
15000
15000
15000
15000
15000
15000
15000
15000
15000
15000
15000
15000
15000
15000
15000
15000
14999.9
14999.9
14999.9
14999.9
14999.9
14999.8
14999.8
14999.7
14999.6
14999.5
14999.4
14999.2
14999.1
14998.8
14998.5
14998.2
14997.8
14997.3
14996.7
14995.9
14995.1
14994
14992.8
14991.3
14989.5
14987.4
14984.9
14982
14978.5
14974.5
14969.9
14964.5
14958.2
14950.9
14942.6
14933
14922
14909.4
14895.2
14878.9
14860.6
14839.8
14816.5
14790.3
14761
14728.4
14692
14651.6
14607
14557.7
14503.5
14444
14378.9
14308
14230.8
14147
14056.4
13958.7
13853.5
13740.7
13620.1
13491.3
13354.4
13209.1
13055.5
12893.3
12722.7
12543.8
12356.5
12161.2
11957.9
11747
11528.8
11303.7
11072
10834.3
10591
10342.8
10090.3
9834
9574.71
9313.09
9049.88
8785.82
8521.67
8258.19
7996.14
7736.28
7479.36
7226.1
6977.21
6733.37
6495.22
6263.37
6038.39
5820.8
5611.07
5409.64
5216.87
5033.09
4858.58
4693.55
4538.16
4392.53
4256.73
4130.76
4014.59
3908.15
3811.33
3723.96
3645.85
3576.79
3516.51
3464.74
3421.18
3385.51
3357.38
3336.46
3322.37
3314.75
3313.22
3317.41
3326.93
3341.4
3360.44
3383.68
3410.74
3441.27
3474.9
3511.28
3550.08
3590.95
3633.57
3677.63
3722.83
3768.86
3815.44
3862.3
3909.17
3955.79
4001.91
4047.27
4091.58
4134.55
4175.75
4214.61
4250.18
4280.84
4303.69
4313.33
4299.77
4244.25
4111.81
3837.37
3300.79
2282.44
480.222
2284.31
15000
15000
15000
15000
15000
15000
15000
15000
15000
15000
15000
15000
15000
15000
15000
15000
15000
15000
15000
15000
15000
15000
15000
15000
15000
15000
15000
15000
15000
15000
15000
15000
15000
15000
14999.9
14999.9
14999.9
14999.9
14999.9
14999.8
14999.8
14999.7
14999.6
14999.5
14999.4
14999.2
14999.1
14998.8
14998.6
14998.2
14997.8
14997.3
14996.7
14996
14995.1
14994
14992.8
14991.3
14989.5
14987.4
14984.9
14982
14978.6
14974.6
14969.9
14964.5
14958.2
14951
14942.6
14933
14922
14909.5
14895.2
14879
14860.7
14840
14816.7
14790.5
14761.2
14728.5
14692.2
14651.8
14607.2
14558
14503.8
14444.3
14379.3
14308.4
14231.2
14147.5
14056.9
13959.2
13854.1
13741.3
13620.7
13492
13355.1
13209.9
13056.3
12894.2
12723.6
12544.7
12357.5
12162.1
11958.9
11748
11529.8
11304.6
11072.9
10835.2
10591.9
10343.7
10091.1
9834.72
9575.35
9313.64
9050.33
8786.15
8521.86
8258.23
7996.02
7735.99
7478.88
7225.42
6976.31
6732.24
6493.85
6261.74
6036.48
5818.61
5608.58
5406.84
5213.76
5029.66
4854.81
4689.43
4533.7
4387.71
4251.54
4125.21
4008.68
3901.87
3804.67
3716.93
3638.46
3569.02
3508.38
3456.25
3412.34
3376.31
3347.85
3326.59
3312.17
3304.24
3302.4
3306.29
3315.53
3329.73
3348.51
3371.5
3398.34
3428.65
3462.08
3498.28
3536.91
3577.63
3620.12
3664.06
3709.15
3755.1
3801.61
3848.42
3895.26
3941.86
3987.97
4033.34
4077.69
4120.69
4161.96
4200.89
4236.58
4267.4
4290.48
4300.54
4287.69
4233.5
4103.44
3832.92
3301.37
2284.22
479.603
2278.17
15000
15000
15000
15000
15000
15000
15000
14999.9
14999.9
14999.9
14999.9
14999.9
14999.9
14999.9
14999.9
14999.9
14999.9
14999.9
15000
15000
15000
15000
15000
15000
15000
15000
15000
15000
15000
15000
15000
15000
15000
15000
14999.9
14999.9
14999.9
14999.9
14999.9
14999.8
14999.8
14999.7
14999.6
14999.5
14999.4
14999.2
14999.1
14998.8
14998.6
14998.2
14997.8
14997.3
14996.7
14996
14995.1
14994
14992.8
14991.3
14989.5
14987.4
14984.9
14982
14978.6
14974.6
14969.9
14964.5
14958.3
14951
14942.7
14933.1
14922.1
14909.6
14895.3
14879.1
14860.8
14840.1
14816.8
14790.7
14761.4
14728.8
14692.4
14652.1
14607.5
14558.3
14504.2
14444.8
14379.8
14308.9
14231.7
14148.1
14057.5
13959.9
13854.8
13742.1
13621.6
13492.9
13356.1
13210.9
13057.3
12895.2
12724.7
12545.8
12358.6
12163.3
11960.1
11749.2
11531
11305.8
11074.1
10836.3
10593
10344.7
10092
9835.62
9576.16
9314.33
9050.89
8786.56
8522.12
8258.31
7995.9
7735.65
7478.31
7224.59
6975.22
6730.86
6492.16
6259.73
6034.14
5815.91
5605.52
5403.4
5209.93
5025.42
4850.16
4684.36
4528.19
4381.76
4245.15
4118.36
4001.37
3894.11
3796.45
3708.25
3629.32
3559.43
3498.33
3445.76
3401.4
3364.94
3336.05
3314.37
3299.56
3291.23
3289.01
3292.53
3301.41
3315.27
3333.74
3356.43
3382.98
3413.02
3446.2
3482.17
3520.59
3561.12
3603.44
3647.23
3692.2
3738.03
3784.46
3831.21
3877.99
3924.57
3970.68
4016.06
4060.43
4103.49
4144.83
4183.86
4219.67
4250.66
4274
4284.43
4272.19
4218.99
4090.49
3822.05
3291.73
2266.76
469.63
2250.51
15000
15000
15000
15000
14999.9
14999.9
14999.9
14999.9
14999.9
14999.8
14999.8
14999.8
14999.8
14999.8
14999.9
14999.9
14999.9
14999.9
14999.9
14999.9
14999.9
15000
15000
15000
15000
15000
15000
15000
15000
15000
15000
15000
15000
15000
14999.9
14999.9
14999.9
14999.9
14999.9
14999.8
14999.8
14999.7
14999.6
14999.5
14999.4
14999.2
14999.1
14998.8
14998.6
14998.2
14997.8
14997.3
14996.7
14996
14995.1
14994
14992.8
14991.3
14989.5
14987.4
14984.9
14982
14978.6
14974.6
14970
14964.6
14958.3
14951.1
14942.7
14933.2
14922.2
14909.7
14895.4
14879.3
14861
14840.3
14817
14790.9
14761.7
14729
14692.7
14652.5
14607.9
14558.7
14504.6
14445.3
14380.3
14309.5
14232.4
14148.8
14058.3
13960.7
13855.7
13743.1
13622.5
13494
13357.2
13212
13058.5
12896.5
12726
12547.2
12360
12164.7
11961.5
11750.7
11532.5
11307.3
11075.5
10837.7
10594.4
10346
10093.2
9836.72
9577.13
9315.18
9051.58
8787.08
8522.44
8258.42
7995.78
7735.27
7477.65
7223.64
6973.95
6729.25
6490.19
6257.38
6031.39
5812.75
5601.92
5399.35
5205.41
5020.43
4844.67
4678.37
4521.68
4374.74
4237.59
4110.27
3992.74
3884.93
3786.73
3697.98
3618.5
3548.07
3486.44
3433.33
3388.44
3351.47
3322.07
3299.9
3284.6
3275.8
3273.13
3276.21
3284.67
3298.13
3316.21
3338.53
3364.74
3394.46
3427.35
3463.04
3501.2
3541.51
3583.62
3627.24
3672.04
3717.75
3764.07
3810.74
3857.47
3904.01
3950.11
3995.5
4039.91
4083.02
4124.44
4163.58
4199.52
4230.7
4254.28
4265.07
4253.35
4200.93
4073.49
3806.21
3276.09
2247.74
462.005
2243.76
15000
15000
14999.9
14999.9
14999.9
14999.8
14999.8
14999.7
14999.7
14999.7
14999.7
14999.7
14999.7
14999.7
14999.7
14999.7
14999.8
14999.8
14999.8
14999.9
14999.9
14999.9
14999.9
14999.9
15000
15000
15000
15000
15000
15000
15000
15000
15000
15000
14999.9
14999.9
14999.9
14999.9
14999.9
14999.8
14999.8
14999.7
14999.6
14999.5
14999.4
14999.2
14999.1
14998.8
14998.6
14998.2
14997.8
14997.3
14996.7
14996
14995.1
14994
14992.8
14991.3
14989.5
14987.4
14985
14982
14978.6
14974.7
14970
14964.6
14958.4
14951.1
14942.8
14933.3
14922.3
14909.8
14895.6
14879.4
14861.1
14840.5
14817.2
14791.1
14761.9
14729.4
14693.1
14652.9
14608.3
14559.2
14505.2
14445.8
14381
14310.2
14233.1
14149.6
14059.2
13961.6
13856.7
13744.1
13623.7
13495.2
13358.5
13213.4
13059.9
12898
12727.5
12548.7
12361.6
12166.4
11963.2
11752.3
11534.1
11308.9
11077.2
10839.3
10595.9
10347.5
10094.6
9838
9578.28
9316.17
9052.4
8787.71
8522.84
8258.58
7995.67
7734.87
7476.93
7222.58
6972.52
6727.43
6487.96
6254.71
6028.27
5809.14
5597.82
5394.74
5200.26
5014.72
4838.4
4671.52
4514.24
4366.69
4228.94
4100.99
3982.84
3874.4
3775.57
3686.19
3606.09
3535.03
3472.78
3419.05
3373.56
3335.99
3306.01
3283.26
3267.4
3258.06
3254.86
3257.44
3265.41
3278.4
3296.03
3317.93
3343.74
3373.09
3405.62
3440.99
3478.86
3518.9
3560.77
3604.18
3648.8
3694.36
3740.55
3787.11
3833.77
3880.27
3926.35
3971.75
4016.2
4059.37
4100.88
4140.13
4176.23
4207.59
4231.43
4242.55
4231.31
4179.55
4053.01
3786.94
3258.88
2238.67
458.087
2242.12
15000
14999.9
14999.9
14999.8
14999.7
14999.6
14999.5
14999.4
14999.4
14999.4
14999.4
14999.4
14999.4
14999.4
14999.5
14999.5
14999.6
14999.7
14999.7
14999.8
14999.8
14999.8
14999.9
14999.9
14999.9
14999.9
15000
15000
15000
15000
15000
15000
15000
15000
14999.9
14999.9
14999.9
14999.9
14999.9
14999.8
14999.8
14999.7
14999.6
14999.5
14999.4
14999.3
14999.1
14998.8
14998.6
14998.2
14997.8
14997.3
14996.7
14996
14995.1
14994
14992.8
14991.3
14989.5
14987.4
14985
14982.1
14978.7
14974.7
14970.1
14964.7
14958.4
14951.2
14942.9
14933.4
14922.4
14910
14895.7
14879.6
14861.3
14840.7
14817.5
14791.4
14762.3
14729.7
14693.5
14653.3
14608.8
14559.8
14505.8
14446.5
14381.7
14310.9
14234
14150.5
14060.2
13962.7
13857.9
13745.4
13625
13496.6
13359.9
13214.9
13061.5
12899.6
12729.3
12550.5
12363.5
12168.2
11965.1
11754.3
11536.1
11310.9
11079.1
10841.2
10597.7
10349.2
10096.2
9839.47
9579.61
9317.33
9053.36
8788.45
8523.34
8258.8
7995.58
7734.46
7476.16
7221.43
6970.96
6725.43
6485.5
6251.76
6024.8
5805.14
5593.26
5389.59
5194.52
5008.36
4831.4
4663.87
4505.93
4357.7
4219.25
4090.61
3971.76
3862.61
3763.07
3672.98
3592.17
3520.4
3457.45
3403.03
3356.86
3318.61
3287.96
3264.57
3248.07
3238.12
3234.32
3236.32
3243.74
3256.19
3273.32
3294.74
3320.09
3349.01
3381.15
3416.16
3453.69
3493.41
3535.01
3578.17
3622.59
3667.96
3714.01
3760.46
3807.03
3853.48
3899.53
3944.94
3989.42
4032.66
4074.25
4113.63
4149.88
4181.45
4205.54
4217
4206.21
4155.07
4029.42
3764.76
3239.24
2221.03
445.384
2215.9
15000
14999.9
14999.7
14999.5
14999.3
14999.1
14999
14998.9
14998.8
14998.8
14998.8
14998.8
14998.9
14999
14999.1
14999.2
14999.3
14999.4
14999.5
14999.6
14999.7
14999.7
14999.8
14999.8
14999.9
14999.9
14999.9
14999.9
15000
15000
15000
15000
15000
15000
14999.9
14999.9
14999.9
14999.9
14999.9
14999.8
14999.8
14999.7
14999.6
14999.5
14999.4
14999.3
14999.1
14998.8
14998.6
14998.2
14997.8
14997.3
14996.7
14996
14995.1
14994.1
14992.8
14991.3
14989.6
14987.5
14985
14982.1
14978.7
14974.7
14970.1
14964.7
14958.5
14951.3
14943
14933.5
14922.6
14910.1
14895.9
14879.8
14861.5
14841
14817.8
14791.7
14762.6
14730.1
14693.9
14653.8
14609.4
14560.4
14506.4
14447.2
14382.5
14311.8
14234.9
14151.5
14061.3
13963.9
13859.1
13746.7
13626.4
13498.1
13361.5
13216.6
13063.3
12901.5
12731.2
12552.5
12365.5
12170.3
11967.2
11756.4
11538.2
11313
11081.2
10843.2
10599.7
10351.1
10098
9841.14
9581.12
9318.65
9054.47
8789.31
8523.93
8259.09
7995.55
7734.06
7475.37
7220.22
6969.29
6723.29
6482.84
6248.57
6021.04
5800.79
5588.29
5383.98
5188.24
5001.4
4823.74
4655.48
4496.8
4347.82
4208.62
4079.21
3959.57
3849.65
3749.32
3658.44
3576.84
3504.29
3440.56
3385.37
3338.43
3299.44
3268.05
3243.94
3226.74
3216.1
3211.64
3212.99
3219.79
3231.65
3248.21
3269.09
3293.94
3322.38
3354.07
3388.66
3425.81
3465.19
3506.48
3549.36
3593.54
3638.71
3684.58
3730.89
3777.37
3823.75
3869.77
3915.17
3959.68
4002.99
4044.67
4084.18
4120.6
4152.37
4176.73
4188.53
4178.18
4127.64
4002.76
3738.83
3213
2192.58
440.338
2200.98
15000
14999.7
14999.3
14998.9
14998.5
14998.2
14998
14997.8
14997.7
14997.7
14997.8
14997.9
14998.1
14998.2
14998.4
14998.6
14998.8
14999
14999.2
14999.3
14999.5
14999.6
14999.7
14999.7
14999.8
14999.9
14999.9
14999.9
14999.9
15000
15000
15000
15000
15000
14999.9
14999.9
14999.9
14999.9
14999.9
14999.8
14999.8
14999.7
14999.6
14999.5
14999.4
14999.3
14999.1
14998.8
14998.6
14998.2
14997.8
14997.3
14996.7
14996
14995.1
14994.1
14992.8
14991.3
14989.6
14987.5
14985
14982.1
14978.8
14974.8
14970.2
14964.8
14958.6
14951.4
14943.1
14933.6
14922.7
14910.3
14896.1
14880
14861.8
14841.2
14818.1
14792.1
14763
14730.6
14694.4
14654.3
14610
14561
14507.2
14448
14383.4
14312.8
14236
14152.7
14062.5
13965.2
13860.5
13748.2
13628
13499.8
13363.3
13218.5
13065.2
12903.5
12733.3
12554.7
12367.8
12172.6
11969.6
11758.8
11540.6
11315.4
11083.5
10845.5
10601.9
10353.2
10100
9843
9582.81
9320.15
9055.73
8790.31
8524.64
8259.47
7995.57
7733.69
7474.58
7218.96
6967.55
6721.02
6480.02
6245.16
6017.02
5796.12
5582.95
5377.94
5181.48
4993.89
4815.47
4646.42
4486.94
4337.15
4197.11
4066.86
3946.38
3835.6
3734.41
3642.68
3560.21
3486.81
3422.23
3366.19
3318.42
3278.6
3246.41
3221.51
3203.53
3192.13
3186.94
3187.59
3193.71
3204.92
3220.85
3241.14
3265.42
3293.33
3324.53
3358.66
3395.39
3434.38
3475.32
3517.9
3561.8
3606.73
3652.41
3698.57
3744.92
3791.22
3837.2
3882.59
3927.13
3970.49
4012.28
4051.92
4088.5
4120.49
4145.12
4157.27
4147.4
4097.52
3973.59
3711.07
3187.14
2168.23
437.644
2210.44
15000
14999.2
14998.4
14997.6
14996.9
14996.4
14996.1
14995.9
14995.9
14996
14996.2
14996.4
14996.7
14997.1
14997.4
14997.8
14998.1
14998.4
14998.7
14998.9
14999.1
14999.3
14999.5
14999.6
14999.7
14999.8
14999.8
14999.9
14999.9
14999.9
14999.9
15000
15000
14999.9
14999.9
14999.9
14999.9
14999.9
14999.9
14999.8
14999.8
14999.7
14999.6
14999.5
14999.4
14999.3
14999.1
14998.8
14998.6
14998.2
14997.8
14997.3
14996.7
14996
14995.1
14994.1
14992.8
14991.4
14989.6
14987.5
14985.1
14982.2
14978.8
14974.9
14970.2
14964.9
14958.7
14951.5
14943.2
14933.7
14922.9
14910.4
14896.3
14880.2
14862.1
14841.5
14818.4
14792.5
14763.4
14731
14695
14654.9
14610.6
14561.8
14508
14448.9
14384.3
14313.8
14237.1
14153.9
14063.8
13966.7
13862.1
13749.9
13629.8
13501.6
13365.3
13220.5
13067.4
12905.8
12735.6
12557.1
12370.2
12175.2
11972.1
11761.3
11543.2
11317.9
11086.1
10848
10604.4
10355.6
10102.2
9845.07
9584.69
9321.82
9057.16
8791.46
8525.47
8259.96
7995.67
7733.37
7473.81
7217.7
6965.76
6718.67
6477.07
6241.59
6012.79
5791.2
5577.3
5371.54
5174.3
4985.92
4806.66
4636.78
4476.43
4325.76
4184.83
4053.67
3932.27
3820.57
3718.46
3625.79
3542.4
3468.07
3402.57
3345.62
3296.95
3256.24
3223.17
3197.41
3178.6
3166.38
3160.4
3160.27
3165.65
3176.14
3191.39
3211.03
3234.7
3262.03
3292.69
3326.31
3362.57
3401.14
3441.7
3483.93
3527.52
3572.2
3617.66
3663.63
3709.85
3756.05
3801.97
3847.35
3891.91
3935.33
3977.2
4016.97
4053.73
4085.94
4110.85
4123.38
4114.02
4064.92
3942.34
3682.58
3165.5
2164.55
437.902
2237.64
15000
14997.6
14996
14994.8
14993.7
14993
14992.7
14992.8
14993
14993.3
14993.7
14994.2
14994.8
14995.4
14995.9
14996.5
14997
14997.5
14998
14998.4
14998.7
14999
14999.2
14999.4
14999.5
14999.7
14999.8
14999.8
14999.9
14999.9
14999.9
14999.9
14999.9
14999.9
14999.9
14999.9
14999.9
14999.9
14999.9
14999.8
14999.8
14999.7
14999.6
14999.5
14999.4
14999.3
14999.1
14998.8
14998.6
14998.2
14997.8
14997.3
14996.7
14996
14995.1
14994.1
14992.9
14991.4
14989.6
14987.6
14985.1
14982.2
14978.9
14974.9
14970.3
14965
14958.8
14951.6
14943.4
14933.9
14923
14910.6
14896.5
14880.5
14862.3
14841.9
14818.8
14792.9
14763.9
14731.6
14695.6
14655.6
14611.4
14562.5
14508.8
14449.9
14385.4
14315
14238.4
14155.2
14065.3
13968.2
13863.7
13751.6
13631.7
13503.6
13367.4
13222.8
13069.7
12908.2
12738.1
12559.7
12372.9
12177.9
11974.9
11764.2
11546
11320.8
11088.9
10850.8
10607
10358.1
10104.7
9847.34
9586.77
9323.67
9058.75
8792.76
8526.44
8260.56
7995.87
7733.12
7473.07
7216.45
6963.95
6716.26
6474.04
6237.88
6008.38
5786.05
5571.39
5364.84
5166.77
4977.53
4797.4
4626.61
4465.35
4313.74
4171.85
4039.73
3917.36
3804.67
3701.56
3607.91
3523.52
3448.2
3381.71
3323.79
3274.15
3232.49
3198.48
3171.79
3152.08
3138.98
3132.14
3131.2
3135.77
3145.5
3160.01
3178.95
3201.94
3228.65
3258.71
3291.79
3327.54
3365.65
3405.78
3447.63
3490.89
3535.27
3580.49
3626.26
3672.32
3718.4
3764.25
3809.6
3854.16
3897.63
3939.6
3979.5
4016.44
4048.87
4074.08
4087
4078.21
4030
3909.01
3652.46
3143.24
2167.11
441.25
2282.73
15000
14990.4
14988.6
14988.6
14988
14987.5
14987.5
14988
14988.6
14989.4
14990.2
14991.1
14992.1
14993
14993.9
14994.8
14995.6
14996.3
14997
14997.6
14998.1
14998.5
14998.8
14999.1
14999.3
14999.5
14999.7
14999.7
14999.8
14999.9
14999.9
14999.9
14999.9
14999.9
14999.9
14999.9
14999.9
14999.9
14999.9
14999.8
14999.8
14999.7
14999.6
14999.5
14999.4
14999.3
14999.1
14998.9
14998.6
14998.2
14997.8
14997.3
14996.7
14996
14995.2
14994.1
14992.9
14991.4
14989.7
14987.6
14985.2
14982.3
14978.9
14975
14970.4
14965.1
14958.9
14951.7
14943.5
14934
14923.2
14910.9
14896.8
14880.8
14862.7
14842.2
14819.2
14793.3
14764.4
14732.1
14696.2
14656.3
14612.1
14563.4
14509.8
14450.9
14386.5
14316.2
14239.7
14156.7
14066.8
13969.9
13865.5
13753.5
13633.7
13505.8
13369.6
13225.1
13072.2
12910.8
12740.8
12562.5
12375.7
12180.8
11977.9
11767.2
11549
11323.8
11091.9
10853.7
10609.9
10360.9
10107.3
9849.82
9589.05
9325.71
9060.52
8794.22
8527.56
8261.29
7996.17
7732.96
7472.41
7215.23
6962.15
6713.84
6470.95
6234.09
6003.85
5780.75
5565.28
5357.88
5158.94
4968.8
4787.75
4616.01
4453.78
4301.17
4158.28
4025.14
3901.73
3788
3683.85
3589.14
3503.7
3427.33
3359.8
3300.84
3250.17
3207.49
3172.49
3144.82
3124.14
3110.11
3102.36
3100.52
3104.24
3113.14
3126.87
3145.05
3167.33
3193.36
3222.79
3255.27
3290.47
3328.07
3367.74
3409.18
3452.07
3496.13
3541.07
3586.62
3632.5
3678.45
3724.2
3769.5
3814.07
3857.58
3899.63
3939.66
3976.76
4009.43
4034.94
4048.27
4040.09
3992.84
3873.42
3619.47
3113.31
2131.07
435.896
2301.8
15000
14962.4
14964.2
14974.6
14978.7
14979.7
14980.4
14981.6
14982.9
14984.3
14985.8
14987.2
14988.6
14990
14991.3
14992.6
14993.8
14994.8
14995.8
14996.6
14997.3
14997.9
14998.4
14998.8
14999.1
14999.3
14999.5
14999.7
14999.8
14999.8
14999.9
14999.9
14999.9
14999.9
14999.9
14999.9
14999.9
14999.9
14999.9
14999.8
14999.8
14999.7
14999.6
14999.5
14999.4
14999.3
14999.1
14998.9
14998.6
14998.2
14997.8
14997.3
14996.8
14996
14995.2
14994.1
14992.9
14991.4
14989.7
14987.6
14985.2
14982.3
14979
14975
14970.5
14965.1
14959
14951.9
14943.6
14934.2
14923.4
14911.1
14897
14881.1
14863
14842.6
14819.6
14793.8
14764.9
14732.7
14696.8
14657
14612.9
14564.3
14510.8
14452
14387.7
14317.5
14241.1
14158.2
14068.5
13971.6
13867.4
13755.6
13635.8
13508
13372
13227.7
13074.8
12913.5
12743.7
12565.4
12378.8
12183.9
11981
11770.4
11552.3
11327
11095.1
10856.9
10613
10363.9
10110.2
9852.5
9591.53
9327.95
9062.48
8795.85
8528.83
8262.16
7996.6
7732.91
7471.83
7214.08
6960.39
6711.42
6467.84
6230.25
5999.23
5775.33
5559.01
5350.74
5150.89
4959.81
4777.78
4605.05
4441.8
4288.15
4144.21
4009.99
3885.5
3770.67
3665.42
3569.61
3483.06
3405.59
3336.96
3276.9
3225.15
3181.4
3145.34
3116.64
3094.95
3079.92
3071.2
3068.43
3071.24
3079.27
3092.15
3109.53
3131.05
3156.35
3185.1
3216.94
3251.55
3288.6
3327.78
3368.76
3411.26
3454.96
3499.6
3544.89
3590.57
3636.36
3682.01
3727.25
3771.79
3815.33
3857.46
3897.6
3934.88
3967.78
3993.6
4007.36
3999.81
3953.55
3835.74
3584.33
3081.57
2100.64
432.814
2371.52
15000
14909.9
14920.7
14952.6
14967
14970.9
14972.7
14974.6
14976.6
14978.7
14980.7
14982.7
14984.6
14986.5
14988.3
14990.1
14991.6
14993.1
14994.3
14995.5
14996.4
14997.2
14997.8
14998.4
14998.8
14999.1
14999.4
14999.5
14999.7
14999.8
14999.8
14999.9
14999.9
14999.9
14999.9
14999.9
14999.9
14999.9
14999.9
14999.8
14999.8
14999.7
14999.6
14999.5
14999.4
14999.3
14999.1
14998.9
14998.6
14998.3
14997.8
14997.4
14996.8
14996
14995.2
14994.2
14992.9
14991.5
14989.7
14987.7
14985.2
14982.4
14979
14975.1
14970.6
14965.2
14959.1
14952
14943.8
14934.4
14923.6
14911.3
14897.3
14881.4
14863.3
14843
14820.1
14794.3
14765.5
14733.3
14697.5
14657.8
14613.8
14565.2
14511.8
14453.1
14388.9
14318.9
14242.6
14159.8
14070.2
13973.5
13869.4
13757.7
13638.1
13510.5
13374.6
13230.3
13077.7
12916.5
12746.8
12568.6
12382
12187.2
11984.4
11773.8
11555.7
11330.5
11098.5
10860.3
10616.3
10367.1
10113.2
9855.39
9594.2
9330.37
9064.62
8797.67
8530.27
8263.18
7997.17
7732.98
7471.35
7213.02
6958.69
6709.05
6464.75
6226.4
5994.58
5769.83
5552.64
5343.46
5142.66
4950.6
4767.57
4593.81
4429.49
4274.77
4129.72
3994.39
3868.77
3752.8
3646.4
3549.44
3461.74
3383.11
3313.33
3252.13
3199.24
3154.38
3117.21
3087.41
3064.66
3048.59
3038.85
3035.09
3036.94
3044.04
3056.04
3072.57
3093.28
3117.81
3145.83
3177
3210.98
3247.44
3286.08
3326.58
3368.64
3411.96
3456.27
3501.28
3546.72
3592.33
3637.85
3683
3727.52
3771.07
3813.26
3853.52
3890.96
3924.09
3950.22
3964.43
3957.55
3912.35
3796.39
3548.41
3052.84
2094.78
432.484
2350.18
15000
14959.3
14957.3
14964.1
14966
14966.1
14967
14968.7
14971
14973.3
14975.7
14978.1
14980.5
14982.9
14985.2
14987.3
14989.3
14991.1
14992.8
14994.2
14995.4
14996.4
14997.2
14997.9
14998.4
14998.9
14999.2
14999.4
14999.6
14999.7
14999.8
14999.8
14999.9
14999.9
14999.9
14999.9
14999.9
14999.9
14999.9
14999.8
14999.8
14999.7
14999.6
14999.5
14999.4
14999.3
14999.1
14998.9
14998.6
14998.3
14997.9
14997.4
14996.8
14996.1
14995.2
14994.2
14992.9
14991.5
14989.8
14987.7
14985.3
14982.4
14979.1
14975.2
14970.6
14965.4
14959.2
14952.1
14944
14934.6
14923.8
14911.6
14897.6
14881.7
14863.7
14843.4
14820.5
14794.9
14766.1
14734
14698.3
14658.6
14614.7
14566.3
14512.9
14454.4
14390.3
14320.3
14244.2
14161.5
14072
13975.5
13871.5
13759.9
13640.5
13513
13377.3
13233.2
13080.6
12919.5
12750
12571.9
12385.4
12190.8
11988
11777.4
11559.4
11334.2
11102.2
10863.9
10619.8
10370.5
10116.5
9858.48
9597.08
9333
9066.95
8799.66
8531.88
8264.38
7997.89
7733.18
7471
7212.06
6957.08
6706.75
6461.71
6222.58
5989.93
5764.32
5546.23
5336.1
5134.33
4941.26
4757.19
4582.35
4416.95
4261.11
4114.93
3978.44
3851.65
3734.5
3626.91
3528.75
3439.85
3360.02
3289.04
3226.66
3172.59
3126.56
3088.24
3057.31
3033.44
3016.28
3005.48
3000.68
3001.53
3007.66
3018.72
3034.36
3054.21
3077.93
3105.19
3135.63
3168.94
3204.78
3242.84
3282.82
3324.41
3367.32
3411.26
3455.96
3501.15
3546.55
3591.91
3636.97
3681.43
3724.98
3767.22
3807.58
3845.18
3878.53
3904.97
3919.65
3913.47
3869.46
3755.65
3512.03
3026.17
2088.48
442.957
2281.4
15000
14985.7
14977.9
14972.3
14967.8
14965.2
14964.7
14965.6
14967.2
14969.3
14971.6
14974.1
14976.8
14979.5
14982.1
14984.6
14987
14989.2
14991.2
14992.9
14994.3
14995.6
14996.6
14997.4
14998.1
14998.6
14999
14999.3
14999.5
14999.6
14999.7
14999.8
14999.9
14999.9
14999.9
14999.9
14999.9
14999.9
14999.9
14999.8
14999.8
14999.7
14999.6
14999.5
14999.4
14999.3
14999.1
14998.9
14998.6
14998.3
14997.9
14997.4
14996.8
14996.1
14995.2
14994.2
14993
14991.5
14989.8
14987.7
14985.3
14982.5
14979.2
14975.3
14970.7
14965.5
14959.4
14952.3
14944.1
14934.8
14924.1
14911.8
14897.9
14882
14864.1
14843.8
14821
14795.4
14766.7
14734.7
14699.1
14659.5
14615.7
14567.3
14514.1
14455.6
14391.7
14321.8
14245.8
14163.3
14074
13977.5
13873.7
13762.3
13643
13515.7
13380.1
13236.1
13083.7
12922.8
12753.3
12575.4
12389
12194.4
11991.8
11781.3
11563.2
11338
11106
10867.7
10623.5
10374.1
10120
9861.78
9600.16
9335.82
9069.47
8801.84
8533.68
8265.74
7998.77
7733.54
7470.79
7211.23
6955.59
6704.54
6458.74
6218.81
5985.33
5758.83
5539.81
5328.71
5125.94
4931.84
4746.7
4570.77
4404.24
4247.25
4099.9
3962.23
3834.23
3715.87
3607.05
3507.66
3417.52
3336.46
3264.25
3200.63
3145.35
3098.1
3058.59
3026.48
3001.45
2983.16
2971.25
2965.38
2965.18
2970.3
2980.39
2995.08
3014.04
3036.91
3063.36
3093.04
3125.64
3160.82
3198.27
3237.69
3278.78
3321.24
3364.79
3409.14
3454.04
3499.22
3544.4
3589.33
3633.72
3677.25
3719.52
3759.96
3797.71
3831.27
3858.04
3873.17
3867.73
3824.92
3713.2
3473.17
2992.65
2057.33
441.657
2216.49
15000
14992.9
14985.2
14977.7
14971.7
14967.8
14965.9
14965.4
14965.9
14967.2
14969.1
14971.4
14974
14976.8
14979.6
14982.4
14985
14987.5
14989.7
14991.7
14993.4
14994.8
14996
14997
14997.7
14998.3
14998.8
14999.1
14999.4
14999.6
14999.7
14999.8
14999.8
14999.9
14999.9
14999.9
14999.9
14999.9
14999.9
14999.8
14999.8
14999.7
14999.6
14999.5
14999.4
14999.3
14999.1
14998.9
14998.6
14998.3
14997.9
14997.4
14996.8
14996.1
14995.2
14994.2
14993
14991.5
14989.8
14987.8
14985.4
14982.6
14979.2
14975.4
14970.8
14965.6
14959.5
14952.4
14944.3
14935
14924.3
14912.1
14898.2
14882.4
14864.5
14844.3
14821.5
14796
14767.4
14735.4
14699.9
14660.4
14616.7
14568.4
14515.3
14457
14393.1
14323.4
14247.5
14165.1
14076
13979.7
13876.1
13764.8
13645.6
13518.5
13383
13239.2
13087
12926.2
12756.8
12579
12392.8
12198.3
11995.7
11785.2
11567.2
11342
11110
10871.7
10627.5
10377.9
10123.7
9865.27
9603.44
9338.84
9072.19
8804.21
8535.66
8267.28
7999.83
7734.07
7470.73
7210.55
6954.23
6702.46
6455.89
6215.14
5980.8
5753.4
5533.43
5321.35
5117.56
4922.4
4736.18
4559.13
4391.45
4233.29
4084.74
3945.85
3816.62
3697.01
3586.94
3486.28
3394.88
3312.55
3239.06
3174.19
3117.65
3069.16
3028.41
2995.09
2968.87
2949.41
2936.35
2929.36
2928.08
2932.15
2941.22
2954.94
2972.96
2994.94
3020.54
3049.43
3081.27
3115.76
3152.57
3191.4
3231.95
3273.92
3317.04
3361.03
3405.61
3450.53
3495.51
3540.29
3584.59
3628.07
3670.35
3710.86
3748.74
3782.51
3809.58
3825.19
3820.49
3778.89
3669.19
3432.43
2956.66
2028.27
439.989
2165.15
15000
14995.3
14989.2
14982.7
14976.9
14972.4
14969.3
14967.5
14966.9
14967.2
14968.4
14970.2
14972.5
14975.1
14977.9
14980.7
14983.5
14986.1
14988.5
14990.7
14992.5
14994.1
14995.5
14996.5
14997.4
14998.1
14998.6
14999
14999.3
14999.5
14999.7
14999.8
14999.8
14999.9
14999.9
14999.9
14999.9
14999.9
14999.9
14999.8
14999.8
14999.7
14999.6
14999.5
14999.4
14999.3
14999.1
14998.9
14998.6
14998.3
14997.9
14997.4
14996.8
14996.1
14995.3
14994.2
14993
14991.6
14989.9
14987.8
14985.4
14982.6
14979.3
14975.5
14970.9
14965.7
14959.6
14952.6
14944.5
14935.2
14924.6
14912.4
14898.5
14882.8
14864.9
14844.8
14822.1
14796.6
14768.1
14736.2
14700.7
14661.3
14617.7
14569.6
14516.5
14458.3
14394.6
14325.1
14249.3
14167.1
14078.1
13981.9
13878.5
13767.3
13648.4
13521.3
13386.1
13242.4
13090.3
12929.7
12760.5
12582.8
12396.7
12202.3
11999.8
11789.4
11571.5
11346.3
11114.3
10875.9
10631.6
10381.9
10127.5
9868.96
9606.91
9342.05
9075.09
8806.77
8537.82
8269
8001.06
7734.76
7470.83
7210.02
6953.01
6700.51
6453.16
6211.59
5976.37
5748.06
5527.14
5314.06
5109.23
4913
4725.67
4547.48
4378.64
4219.28
4069.52
3929.39
3798.91
3678.04
3566.68
3464.73
3372.04
3288.41
3213.63
3147.46
3089.63
3039.87
2997.86
2963.3
2935.85
2915.18
2900.95
2892.8
2890.4
2893.38
2901.4
2914.11
2931.16
2952.22
2976.94
3004.99
3036.05
3069.8
3105.93
3144.13
3184.11
3225.57
3268.23
3311.82
3356.06
3400.69
3445.44
3490.04
3534.22
3577.64
3619.91
3660.47
3698.46
3732.42
3759.79
3775.87
3771.93
3731.63
3624.26
3392.13
2927
2027.28