<?xml version="1.0"?>
<VTKFile type="PolyData" version="0.1" byte_order="LittleEndian">
  <PolyData>
    <Piece NumberOfPoints="50000" NumberOfVerts="50000" NumberOfLines="0" NumberOfStrips="0" NumberOfPolys="0">
      <Points>
        <DataArray type="Float32" NumberOfComponents="3" format="ascii">
0.428724 0.00873576 0
-0.407799 0.00285478 0
0.415533 -0.0032174 0
0.433879 -0.00268108 0
-0.354922 0.00649594 0
-0.298256 0.00207438 0
0.142626 -0.0281479 0
-0.366621 -0.00024407 0
0.125772 -0.0220007 0
-0.0292953 0.00939535 0
0.325976 -0.0139051 0
0.413779 0.00792053 0
-0.239144 0.00731436 0
-0.170028 -0.0265212 0
-0.445516 0.00221457 0
0.336132 0.0127749 0
-0.0625255 -0.00256451 0
0.430382 0.00135855 0
0.16301 0.00120574 0
-0.408369 0.00375156 0
-0.427799 0.00570491 0
0.37301 0.00686967 0
-0.422328 0.00250916 0
0.419529 -0.00042522 0
0.267255 -0.0139946 0
0.312624 0.0135234 0
-0.41892 -0.00834785 0
0.430872 -0.00405506 0
-0.300087 0.0250037 0
-0.440807 0.00954204 0
-0.331977 0.0127307 0
-0.30875 -0.0179921 0
0.426753 0.000449629 0
0.429655 -0.00152637 0
0.0815967 0.00521179 0
0.436858 -0.00216595 0
0.132454 0.0012892 0
-0.437083 0.00251673 0
-0.409261 -0.00585801 0
-0.45482 -0.00291256 0
0.315138 0.0137816 0
0.333063 0.00626658 0
-0.417507 -0.00272311 0
0.424047 0.000349746 0
0.439513 0.00101597 0
-0.429963 0.00918566 0
0.417803 0.00490915 0
0.214205 -0.0163941 0
0.412522 -2.84033e-05 0
0.422331 -0.000208049 0
0.17705 0.0228191 0
-0.421481 -0.00129935 0
-0.293252 0.00992542 0
0.416821 0.00275344 0
-0.414993 0.00246656 0
-0.442407 0.00262838 0
0.429266 -0.00175352 0
0.173238 0.0121983 0
0.321088 0.00781139 0
0.443204 -0.00563381 0
0.361974 0.00481153 0
0.433827 0.00247531 0
0.0954768 -0.0348409 0
0.443188 -0.00225381 0
-0.143226 0.0179574 0
-0.413708 0.00141778 0
0.421207 -0.00132067 0
0.432787 -0.00102736 0
0.447688 0.00400975 0
0.309841 0.000745771 0
-0.418661 0.0033882 0
0.420586 0.00368738 0
0.229587 0.00100922 0
0.234836 0.00704629 0
0.200197 0.0052672 0
-0.424716 -0.00278465 0
0.367874 0.0131183 0
-0.40333 0.00453784 0
0.324404 0.0071001 0
-0.441457 0.00166239 0
-0.222867 -0.0363268 0
-0.432442 0.00463342 0
0.397616 0.00516558 0
-0.420315 0.000625916 0
0.442658 -0.00539041 0
-0.421481 0.00348051 0
0.443441 -0.00528803 0
-0.189888 -0.00926344 0
-0.183761 0.0244359 0
-0.425012 -0.00768017 0
0.416776 0.00683425 0
-0.415753 -0.000730541 0
0.418948 -0.00219496 0
-0.286871 0.0207715 0
-0.0435783 -0.0234901 0
-0.374145 0.00553794 0
0.418078 0.0090215 0
-0.428687 0.00341142 0
-0.452184 0.00777596 0
-0.448542 -0.00115937 0
-0.376168 -0.00814284 0
-0.417296 -0.00607513 0
0.446385 -0.00093627 0
-0.181123 -0.0221228 0
0.449545 -0.000793677 0
0.368097 0.0133041 0
0.270638 0.00692048 0
0.0214859 0.00825122 0
0.413228 0.00460629 0
-0.4229 -0.00499161 0
-0.319196 0.0208355 0
-0.429106 0.00331598 0
-0.366356 0.0111294 0
317.205 458.854 0
0.281814 0.00763821 0
-0.422935 0.00373953 0
-0.438554 0.00465083 0
8.15085 11.1501 0
-0.425956 0.00170165 0
-0.0219918 -0.0094015 0
0.431034 -0.0017294 0
-0.410874 -0.00408762 0
0.290842 -0.00390508 0
-0.393008 0.00779809 0
0.423119 -0.000937285 0
0.411231 -0.0012132 0
0.135084 0.0252788 0
0.434725 0.00450152 0
-0.381167 -0.00740717 0
0.328061 -0.00114767 0
0.43714 -0.00357654 0
0.433662 -0.000641509 0
-0.450409 0.000728163 0
-0.375793 0.00421526 0
0.444076 -0.00212139 0
0.422071 -0.00129772 0
0.407058 -0.00316494 0
-0.0681256 0.00320528 0
0.340406 -0.0152083 0
0.331153 -0.0128044 0
0.340262 -0.0154508 0
0.403829 0.0100518 0
0.436213 -0.00380355 0
-0.101733 -0.0149695 0
-0.436604 0.00707251 0
0.28977 -0.0240647 0
-0.279878 0.0211648 0
-0.430731 0.00203569 0
-0.308281 -0.0212352 0
-0.432073 0.0038331 0
0.32926 0.00768915 0
0.419234 0.00222373 0
-0.131525 -0.0126717 0
0.341463 -0.0111091 0
0.339568 0.00872154 0
0.415687 0.00394162 0
0.28469 -0.0104593 0
-0.423373 0.00286885 0
-0.183027 -0.00648141 0
0.434971 -0.000605141 0
0.290604 -0.00192324 0
-0.38421 -0.00325934 0
-0.415978 0.00258613 0
-0.43249 0.00265678 0
-0.11219 0.0104723 0
0.335101 -0.00689699 0
0.37878 -0.00612266 0
0.3837 0.00373352 0
0.320617 0.00821717 0
-0.178066 0.000473643 0
0.448025 -0.00541241 0
-0.414654 0.00320233 0
-0.0987613 -0.00641389 0
0.432946 0.00440745 0
-0.0795381 -0.0038249 0
-0.335081 0.0165652 0
-0.415774 0.00253997 0
-0.253303 -0.0118625 0
-0.421477 -0.00258459 0
-0.423302 -0.00711195 0
0.415112 -0.00030322 0
-0.42818 0.00670945 0
-0.421685 0.00564145 0
0.428527 0.00547151 0
0.418118 -0.00118183 0
0.323389 -0.0185798 0
0.448981 -0.00385224 0
0.444288 0.000250329 0
0.430737 -0.00414261 0
0.0479528 0.0312868 0
0.438092 -0.00410816 0
0.354829 -0.00989053 0
-0.286165 -0.0196762 0
0.394959 0.00663058 0
-0.391938 0.00663316 0
0.415016 0.00164049 0
-0.349313 0.012335 0
-0.372141 0.005499 0
-0.417545 0.00396984 0
0.420212 0.00504288 0
-0.279203 0.0200009 0
0.443152 0.0026781 0
0.384394 -0.00601466 0
-0.0880485 -0.00771021 0
0.448761 -0.00552042 0
-0.411455 -0.00864019 0
0.058254 0.050777 0
0.177799 -0.00726095 0
-0.372767 0.011239 0
-0.262836 -0.0109807 0
0.410961 0.000400431 0
-0.183543 -0.0224926 0
0.387323 -0.00410024 0
-0.360272 0.0115739 0
-0.2472 -0.0169885 0
-0.432418 0.00632159 0
-0.426655 0.00806009 0
0.425968 -0.000528576 0
-0.438674 -0.00165102 0
-0.0518939 0.022193 0
-0.337567 0.0123303 0
-0.43774 0.00372173 0
-0.406556 -0.00697208 0
0.445023 -0.0033601 0
0.157567 0.0261067 0
-0.416018 0.00309037 0
0.447416 0.000994362 0
0.429148 -0.00111108 0
-0.369904 0.0102356 0
-0.435913 -0.000787768 0
-0.428978 -0.00423531 0
0.417437 0.00430692 0
0.217624 0.0249562 0
-0.0665621 0.0158022 0
-0.444029 0.00456525 0
-0.382395 0.00611461 0
0.328408 -0.0188676 0
-0.336703 -0.00492558 0
-0.424372 0.00338775 0
0.260014 -0.00332059 0
0.439183 -0.000257183 0
-0.389581 -0.00738799 0
-0.429214 0.00343227 0
-0.24861 -0.0151147 0
0.214422 0.00708515 0
0.383536 0.00424601 0
-0.405367 0.00733013 0
0.429516 -0.00110769 0
0.442316 0.00261876 0
0.253626 0.0131715 0
0.264543 0.00446384 0
-0.403658 0.00522264 0
0.415033 -0.00334505 0
-0.191305 -0.0102019 0
-0.390537 0.00849861 0
0.415611 -0.00051953 0
-0.378535 0.00828334 0
0.367976 0.00937572 0
0.159431 0.024745 0
0.229964 8.13934e-05 0
0.44208 0.00075338 0
-0.403508 0.00503864 0
0.0806046 -0.00898521 0
0.0402022 -0.0150815 0
-0.287954 0.00346828 0
-0.423725 0.000968592 0
-0.417332 0.00294691 0
-0.414355 -0.00165187 0
0.425723 -0.00131887 0
0.422491 -0.0010768 0
0.435188 -0.00123718 0
-0.427498 -0.00321444 0
0.279207 0.00307326 0
0.0229178 0.01313 0
-0.446532 0.00519575 0
-0.4342 0.0022716 0
0.413474 -0.000643384 0
-0.415 0.00303626 0
0.410672 0.00671976 0
-0.420994 -0.0017155 0
-0.408345 -0.000322031 0
-0.189331 -0.0245981 0
-0.42771 0.00245565 0
0.40374 -0.00255001 0
-0.363633 0.0112426 0
-0.409591 -0.00360225 0
-0.162757 0.0209918 0
-0.426425 0.00331774 0
-0.433212 0.00388292 0
0.364128 -0.00350867 0
-0.152297 0.0070383 0
0.425135 -0.0012285 0
0.43447 -0.00332524 0
0.277044 0.0145893 0
0.441398 0.00330893 0
0.418917 0.00637388 0
0.43971 0.00427308 0
-0.293383 0.0246266 0
-0.400591 0.00202173 0
-0.445424 0.000818385 0
0.450894 0.000747734 0
-0.0605284 0.00766517 0
0.423731 -0.00210763 0
0.413501 0.0032739 0
0.436347 -0.00102378 0
0.0746012 0.0127851 0
-0.224992 0.0264304 0
0.367473 0.00550894 0
-0.0517619 0.000238368 0
-0.209433 0.00975872 0
-0.350431 0.0121032 0
0.424935 0.00684053 0
-0.31031 0.0152812 0
0.393416 -0.00592512 0
0.324181 -0.00526065 0
-0.443912 0.00651666 0
0.345907 -0.0158518 0
0.446227 -0.00576394 0
0.39902 -0.0034276 0
0.426351 0.00764465 0
-0.433088 0.00555234 0
-0.0952136 0.0158174 0
0.435189 0.00198906 0
0.433131 -0.00123149 0
0.199855 0.0261656 0
-0.413234 -0.000631127 0
-0.405496 0.00518601 0
0.445918 0.000301403 0
-0.414555 -0.00338512 0
0.42999 0.00241655 0
0.433085 -0.00282084 0
0.207398 -0.0251112 0
0.414945 0.00352494 0
-0.425378 0.00337 0
-0.364026 -0.000820328 0
-0.24455 -0.00286837 0
0.0341343 -0.00842554 0
0.0515553 -0.0314283 0
-0.39022 0.00342285 0
0.192922 -0.0278658 0
-0.0457578 0.0429746 0
-0.439175 0.00632157 0
-0.314016 0.0143166 0
-0.428756 0.0045833 0
-0.177933 -0.0146126 0
0.432792 0.00707669 0
-0.304946 0.0161035 0
-0.433928 -0.000193865 0
-70.2232 290.459 0
0.431864 -0.00580542 0
0.430759 -0.00139684 0
-0.353819 0.0148796 0
0.418743 0.00293554 0
0.397302 -0.00128048 0
-627.035 -1121.35 0
0.131999 0.0153776 0
-0.429503 0.00381864 0
-0.357279 -0.00278072 0
0.427742 0.00355215 0
4.42782 -9.12217 0
0.404886 0.00510758 0
-0.420333 -0.00650999 0
-0.268563 0.00012136 0
-0.426873 -0.00361112 0
-0.435231 0.00702873 0
0.424525 -0.00127672 0
-0.442106 -0.00165899 0
-0.383347 0.00959449 0
0.333203 0.0131681 0
-0.416613 -6.71908e-05 0
-0.347327 0.014895 0
-0.385257 0.00857716 0
0.428973 0.00428807 0
0.386777 -0.00760212 0
-0.256676 0.0200879 0
0.440956 -0.00240848 0
-0.429692 -0.00611817 0
-0.399876 -0.00399954 0
-0.434348 0.00122499 0
0.0373916 -0.0333049 0
-0.418156 -0.00579241 0
0.423013 0.00432198 0
-0.426274 0.00378452 0
-0.423917 0.00199788 0
-0.104694 0.015923 0
0.277066 0.0143896 0
-0.138874 0.0386101 0
0.0910793 0.0217855 0
-0.430074 0.00404037 0
-0.0779892 0.00370123 0
-0.430838 -0.00113958 0
-0.433085 0.00572272 0
0.413488 -0.00638806 0
0.364342 0.00985038 0
-0.405256 0.00669205 0
0.384206 0.00499417 0
0.381722 0.00127538 0
-0.413284 0.00313395 0
-0.228324 -0.00766229 0
0.302009 -0.018478 0
-0.413733 0.000783584 0
0.365732 -0.00962802 0
0.167328 -0.00525286 0
-0.425359 -0.00116731 0
0.397289 -0.000815048 0
0.417939 -0.00263412 0
0.42436 -0.00518806 0
0.432346 -0.00182444 0
0.439716 -0.00013349 0
0.416649 0.00714621 0
-0.428072 0.0028374 0
0.307561 0.0101381 0
-0.353799 -0.00547191 0
0.202018 0.0282896 0
-0.403042 0.00279288 0
-0.144186 -0.00606365 0
-0.334373 0.0123796 0
0.12181 -0.0150341 0
-0.436988 0.00405017 0
0.417261 -0.00129891 0
-0.117994 0.0313223 0
0.149378 0.0164184 0
-0.442871 0.00349293 0
0.420263 0.00183406 0
0.43325 -0.000884736 0
0.413921 0.00902118 0
0.442423 -0.00512555 0
-0.422249 0.00335936 0
-0.435599 0.00257684 0
[...]
      <PointData Scalars="T">
        <DataArray type="Float32" Name="T" format="ascii" NumberOfComponents="1">
316.187
444.382
315.387
315.387
444.382
444.382
315.387
458.109
315.387
444.382
315.387
316.187
444.382
458.109
444.382
316.187
458.109
306.479
304.207
444.382
444.382
316.187
444.382
315.387
315.387
316.187
458.109
315.387
444.382
444.382
444.382
458.109
309.362
315.387
316.187
315.387
304.414
444.382
458.109
458.109
316.187
316.187
458.109
313.307
301.879
444.382
316.187
315.387
315.387
315.387
316.187
458.109
444.382
316.187
444.382
444.382
315.387
316.187
316.187
315.387
316.187
316.187
315.387
315.387
444.382
879.397
315.387
315.387
316.187
303.871
444.382
316.187
302.391
316.187
316.187
458.109
316.187
444.382
316.187
786.34
458.109
444.382
316.187
775.967
315.387
444.382
315.387
458.109
444.382
458.109
316.187
458.109
315.387
444.382
458.109
444.382
316.187
444.382
444.382
458.109
458.109
458.109
315.387
458.109
315.387
316.187
316.187
316.187
316.187
458.109
444.382
444.382
444.382
316.187
316.187
444.382
444.382
316.187
801.534
458.109
315.387
458.109
315.387
444.382
315.387
315.387
316.187
316.187
458.109
315.387
315.387
315.387
922.241
444.382
315.387
315.387
315.387
444.382
315.387
315.387
315.387
316.187
315.387
458.109
444.382
315.387
444.382
444.382
458.109
444.382
316.187
316.187
458.109
315.387
316.187
316.187
315.387
444.382
458.109
315.387
315.387
458.109
444.382
444.382
444.382
315.387
315.387
316.187
316.187
801.196
315.387
444.382
458.109
316.187
458.109
444.382
444.382
458.109
458.109
458.109
315.387
444.382
444.382
316.187
315.387
315.387
315.387
318.441
315.387
316.187
315.387
315.387
458.109
316.187
444.382
316.486
444.382
444.382
444.382
316.187
444.382
316.187
315.387
458.109
315.387
458.109
316.187
315.387
444.382
458.109
311.315
458.109
315.387
444.382
458.109
444.382
444.382
315.387
458.109
444.382
444.382
444.382
458.109
315.387
316.187
444.382
302.109
315.387
444.382
458.109
458.109
316.187
316.187
444.382
444.382
444.382
315.387
458.109
444.382
315.387
315.387
458.109
444.382
458.109
316.187
316.187
444.382
315.387
316.187
316.187
316.187
444.382
315.387
458.109
444.382
315.387
444.382
316.187
316.187
324.354
303.669
444.382
315.387
315.387
444.382
813.013
444.382
458.109
315.387
315.387
315.387
458.109
316.187
316.187
444.382
444.382
315.387
444.382
316.187
458.109
458.109
458.109
444.382
315.387
444.382
458.109
444.382
444.382
444.382
315.387
444.382
315.387
315.387
316.187
316.187
316.187
316.187
444.382
444.382
815.619
303.871
444.382
315.387
316.187
315.387
316.187
444.382
316.187
767.682
444.382
444.382
316.187
444.382
315.387
315.387
444.382
315.387
315.387
315.387
316.187
444.382
444.382
316.187
315.387
316.187
458.109
444.382
315.167
458.109
316.187
315.387
315.387
316.187
444.382
458.109
458.109
315.387
315.387
444.382
315.387
444.382
444.382
444.382
444.382
458.109
316.187
444.382
458.109
444.382
315.387
315.387
444.382
316.187
315.387
458.109
316.187
444.382
458.109
316.187
315.387
316.187
458.109
774.221
458.109
444.382
315.387
458.109
444.382
316.187
458.109
444.382
444.382
316.187
315.387
444.382
315.387
458.109
458.109
880.99
315.387
458.109
316.187
444.382
444.382
444.382
316.187
444.382
316.187
444.382
444.382
458.109
444.382
315.387
316.187
444.382
316.187
304.41
444.382
458.109
315.387
795.784
315.387
315.387
458.109
315.387
315.387
315.387
315.387
315.387
316.187
444.382
316.187
458.109
316.187
444.382
458.109
444.382
315.387
444.382
315.387
444.382
316.187
444.382
329.852
315.387
316.187
315.387
444.382
444.382
315.387
444.382
316.187
444.382
316.187
888.571
458.109
444.382
444.382
316.187
305.686
444.382
315.387
747.515
458.109
458.109
444.382
458.109
316.187
315.387
458.109
316.187
458.109
458.109
315.387
315.387
458.109
444.382
787.137
458.109
306.552
458.109
321.76
444.382
458.109
315.387
316.187
458.109
458.109
444.382
444.382
316.187
789.34
315.387
315.387
316.187
444.382
444.382
444.382
315.387
316.187
805.254
458.109
458.109
444.382
304.944
316.187
315.387
302.712
444.382
316.187
316.187
302.079
444.382
316.187
315.387
458.109
315.387
444.382
444.382
444.382
458.109
458.109
458.109
458.109
458.109
315.387
315.387
315.387
316.187
315.387
316.187
316.187
458.109
316.187
444.382
315.387
316.187
444.382
316.187
444.382
790.054
444.382
782.55
316.187
315.387
316.187
315.387
315.387
315.387
444.382
316.187
316.187
746.107
316.187
758.536
444.382
458.109
315.387
315.387
444.382
444.382
458.109
458.109
458.109
316.187
316.187
316.187
316.187
458.109
444.382
316.187
444.382
311.315
316.187
458.109
444.382
315.387
444.382
316.187
316.187
458.109
316.187
458.109
315.387
860.409
444.382
304.207
315.387
458.109
458.109
829.584
444.382
444.382
316.187
315.387
315.387
305.268
316.187
458.109
786.873
458.109
458.109
444.382
316.187
315.387
444.382
316.187
458.109
302.085
316.187
323.341
444.382
316.187
458.109
880.753
316.187
315.387
458.109
316.187
444.382
315.387
315.387
316.187
315.387
458.109
458.109
444.382
934.111
316.187
458.109
315.387
458.109
458.109
316.187
315.387
458.109
458.109
444.382
444.382
315.387
315.387
444.382
458.109
458.109
316.187
315.387
444.382
444.382
315.387
315.387
316.187
316.187
444.382
458.109
458.109
458.109
458.109
316.187
444.382
316.187
316.187
458.109
444.382
315.387
315.387
458.109
444.382
315.387
458.109
458.109
444.382
315.387
458.109
444.382
316.187
444.382
444.382
315.387
316.187
444.382
316.187
315.387
444.382
316.187
315.387
444.382
444.382
315.387
315.387
315.387
316.187
316.187
458.109
458.109
444.382
444.382
316.187
444.382
458.109
308.078
316.187
444.382
444.382
444.382
315.387
316.187
316.187
316.187
444.382
315.387
315.387
836.026
444.382
316.187
315.387
316.187
316.187
316.187
444.382
316.187
316.187
315.387
444.382
316.187
444.382
315.387
316.187
315.387
316.187
315.387
444.382
316.187
837.752
316.187
444.382
444.382
444.382
315.387
458.109
316.187
444.382
315.387
316.187
458.109
315.387
836.617
458.109
458.109
444.382
444.382
444.382
315.387
315.387
315.387
315.387
315.387
767.682
316.187
444.382
458.109
315.387
315.387
444.382
306.241
444.382
316.187
444.382
444.382
444.382
458.109
458.109
307.854
444.382
316.187
444.382
458.109
444.382
458.109
458.109
315.387
316.187
315.387
444.382
458.109
444.382
444.382
458.109
444.382
458.109
316.187
444.382
458.109
315.387
315.387
315.387
444.382
444.382
458.109
316.187
458.109
304.569
444.382
458.109
458.109
316.187
315.387
316.187
314.794
315.387
444.382
444.382
315.387
444.382
316.187
444.382
316.187
444.382
458.109
316.187
444.382
311.638
444.382
444.382
315.387
305.137
458.109
316.187
315.387
308.522
316.187
444.382
458.109
458.109
316.187
444.382
314.152
316.187
315.387
315.387
458.109
444.382
318.72
444.382
444.382
315.387
315.387
316.187
315.387
444.382
458.109
316.187
444.382
316.187
316.187
444.382
444.382
316.187
889.487
315.387
315.387
444.382
444.382
315.387
307.772
444.382
458.109
458.109
316.187
310.076
785.948
444.382
444.382
782.245
458.109
315.387
444.382
315.387
444.382
315.387
315.387
805.378
315.387
444.382
316.187
315.387
444.382
458.109
316.187
315.387
316.187
316.187
316.187
316.187
444.382
316.187
315.387
458.109
315.387
316.187
444.382
315.387
315.387
316.187
444.382
444.382
458.109
315.387
458.109
315.387
458.109
444.382
444.382
316.187
458.109
458.109
458.109
315.387
831.293
444.382
315.387
316.187
458.109
458.109
315.387
444.382
315.387
315.387
458.109
316.187
458.109
316.187
315.387
316.187
315.387
316.187
316.187
444.382
316.187
315.387
315.387
444.382
315.387
458.109
444.382
458.109
315.387
316.187
444.382
458.109
444.382
315.387
444.382
444.382
315.387
315.387
316.187
316.187
444.382
444.382
315.387
444.382
316.187
444.382
458.109
311.638
458.109
315.387
444.382
458.109
444.382
444.382
444.382
774.291
458.109
444.382
444.382
316.187
808.915
315.387
315.387
315.387
315.387
316.187
444.382
315.387
444.382
316.187
444.382
316.187
316.187
458.109
316.187
444.382
315.387
316.187
315.387
458.109
315.387
444.382
306.241
458.109
458.109
316.187
458.109
444.382
444.382
458.109
315.387
316.187
316.187
316.187
458.109
315.387
458.109
315.387
318.656
316.187
316.187
316.187
315.387
315.387
458.109
316.187
316.187
458.109
444.382
315.387
444.382
302.12
444.382
458.109
444.382
776.722
458.109
444.382
316.187
458.109
316.187
444.382
315.387
444.382
316.187
444.382
444.382
316.187
316.187
444.382
315.387
316.187
315.387
310.921
458.109
444.382
458.109
924.486
315.387
444.382
325.409
444.382
444.382
315.387
315.387
444.382
316.187
315.387
315.387
315.387
444.382
315.387
316.187
444.382
444.382
444.382
458.109
444.382
315.387
444.382
315.387
458.109
329.267
315.387
316.187
444.382
458.109
458.109
444.382
315.387
316.187
458.109
315.387
303.661
458.109
458.109
315.387
444.382
306.479
315.387
316.187
458.109
444.382
444.382
444.382
316.187
857.337
316.187
444.382
444.382
315.387
316.187
316.187
315.387
316.187
458.109
834.897
458.109
444.382
315.387
316.187
316.187
316.187
316.187
316.187
458.109
444.382
444.382
444.382
458.109
444.382
444.382
327.123
315.387
315.387
315.387
315.387
444.382
315.387
444.382
308.078
458.109
444.382
316.187
444.382
906.638
315.387
887.096
315.387
315.387
315.387
315.387
316.187
316.187
315.387
316.187
458.109
302.085
444.382
316.187
316.187
315.387
458.109
315.387
458.109
316.187
316.187
316.187
316.187
444.382
315.387
444.382
316.187
315.387
315.387
870.371
869.946
853.95
315.387
315.387
458.109
316.187
444.382
316.187
315.387
458.109
444.382
747.383
315.387
316.187
444.382
315.387
444.382
316.187
444.382
444.382
747.383
444.382
315.387
315.387
458.109
444.382
444.382
444.382
315.387
458.109
316.187
444.382
316.187
316.187
444.382
444.382
316.187
444.382
315.387
315.387
315.387
444.382
311.99
315.387
458.109
444.382
315.387
444.382
315.387
444.382
444.382
315.387
458.109
458.109
315.387
315.387
316.187
315.387
316.187
458.109
316.187
316.187
444.382
444.382
315.387
444.382
316.187
301.879
789.34
444.382
316.187
870.645
761.456
303.342
315.387
458.109
444.382
315.387
444.382
808.915
458.109
458.109
444.382
315.387
315.387
444.382
444.382
315.387
458.109
315.387
316.187
316.187
444.382
444.382
315.387
761.456
316.187
444.382
316.187
315.387
444.382
315.387
315.387
458.109
444.382
458.109
458.109
444.382
444.382
444.382
444.382
316.187
315.387
315.387
444.382
315.387
444.382
444.382
315.387
444.382
444.382
316.187
444.382
458.109
315.387
458.109
458.109
316.187
444.382
316.187
316.187
315.387
315.387
444.382
316.187
310.163
444.382
444.382
316.187
444.382
444.382
321.924
315.387
315.387
458.109
315.387
444.382
314.738
315.387
853.367
444.382
444.382
315.387
315.387
444.382
444.382
444.382
458.109
316.187
458.109
315.387
458.109
458.109
315.387
316.187
315.387
458.109
316.187
315.387
316.187
801.012
315.387
830.253
458.109
444.382
444.382
778.439
458.109
458.109
316.187
316.187
458.109
444.382
444.382
315.387
444.382
444.382
444.382
458.109
458.109
315.387
315.387
316.187
444.382
316.187
316.187
315.387
458.109
315.387
325.732
316.187
306.651
316.187
444.382
829.598
857.792
444.382
444.382
315.387
458.109
458.109
316.187
444.382
458.109
444.382
781.814
444.382
444.382
458.109
315.387
458.109
458.109
444.382
458.109
444.382
315.387
458.109
444.382
315.387
315.387
315.387
458.109
458.109
444.382
316.187
444.382
458.109
318.72
444.382
444.382
444.382
316.187
444.382
316.187
316.187
315.387
458.109
315.387
310.591
458.109
846.158
315.387
316.187
458.109
444.382
444.382
315.387
444.382
458.109
444.382
316.187
316.187
315.387
316.187
458.109
444.382
444.382
315.387
316.187
444.382
316.187
316.187
458.109
458.109
458.109
316.187
316.187
316.187
444.382
316.187
831.293
316.187
444.382
444.382
444.382
316.187
315.387
315.387
315.387
458.109
315.387
315.387
798.966
444.382
316.187
316.187
315.387
444.382
315.387
444.382
315.387
316.187
315.387
304.515
458.109
444.382
458.109
316.187
315.387
315.387
315.387
444.382
316.187
444.382
316.187
315.387
316.187
458.109
315.387
444.382
316.187
316.187
315.387
458.109
315.387
315.387
315.387
315.387
316.187
844.832
316.187
315.387
444.382
458.109
458.109
759.342
444.382
444.382
763.848
444.382
315.387
315.387
458.109
316.187
444.382
444.382
444.382
315.387
458.109
458.109
316.187
315.387
316.187
316.187
316.187
444.382
316.187
316.187
315.387
316.187
444.382
313.437
817.146
458.109
458.109
315.387
458.109
444.382
444.382
444.382
444.382
444.382
853.95
444.382
316.187
316.187
315.387
444.382
315.387
444.382
315.387
316.187
444.382
302.465
315.387
316.187
316.187
315.387
787.137
315.387
305.327
444.382
316.187
444.382
316.187
444.382
315.387
315.387
444.382
444.382
458.109
444.382
458.109
444.382
315.387
315.387
315.387
458.109
316.187
444.382
315.387
458.109
316.187
444.382
444.382
458.109
444.382
315.387
315.387
458.109
315.387
316.187
458.109
444.382
315.387
316.187
444.382
316.187
316.187
315.387
315.387
315.387
458.109
444.382
458.109
458.109
316.187
315.387
316.187
304.414
315.387
444.382
871.355
458.109
315.387
305.007
315.387
315.387
444.382
315.387
316.187
316.187
316.187
315.387
316.187
444.382
444.382
444.382
316.187
444.382
444.382
315.387
303.539
315.387
301.976
444.382
316.187
444.382
316.187
316.187
444.382
315.387
458.109
458.109
458.109
315.387
458.109
458.109
444.382
458.109
458.109
444.382
458.109
458.109
805.279
315.387
444.382
444.382
316.187
316.187
315.387
315.387
316.187
444.382
444.382
316.187
458.109
458.109
316.187
444.382
458.109
316.187
316.187
315.387
444.382
444.382
315.387
444.382
444.382
315.387
458.109
304.074
315.387
315.387
315.387
444.382
444.382
444.382
315.387
444.382
444.382
444.382
444.382
458.109
444.382
316.187
458.109
444.382
444.382
316.187
444.382
315.387
444.382
790.206
316.187
444.382
458.109
315.387
315.387
458.109
458.109
854.554
315.387
782.166
444.382
761.456
458.109
444.382
458.109
458.109
316.187
315.387
458.109
444.382
315.387
316.187
315.387
458.109
315.387
315.387
316.187
316.187
444.382
458.109
444.382
444.382
316.187
444.382
316.187
444.382
458.109
458.109
315.387
301.99
458.109
444.382
315.387
807.947
316.187
315.387
316.187
315.387
315.387
316.187
444.382
458.109
458.109
444.382
315.387
315.387
458.109
315.387
784.332
444.382
444.382
458.109
444.382
316.187
315.387
444.382
458.109
316.187
316.187
444.382
315.387
444.382
315.387
315.387
315.387
444.382
316.187
315.387
315.387
316.187
458.109
301.984
458.109
458.109
315.387
315.387
458.109
444.382
316.187
315.387
315.387
458.109
458.109
444.382
316.187
316.187
458.109
316.187
315.387
834.897
315.387
316.187
444.382
458.109
458.109
444.382
444.382
444.382
444.382
444.382
316.187
458.109
303.669
458.109
458.109
316.187
444.382
444.382
444.382
458.109
315.387
444.382
458.109
316.187
444.382
777.978
444.382
316.187
315.387
316.187
315.387
458.109
458.109
444.382
458.109
444.382
444.382
458.109
444.382
444.382
315.387
316.187
316.187
319
308.653
458.109
458.109
316.187
316.187
458.109
458.109
444.382
315.387
444.382
444.382
444.382
315.387
444.382
315.387
316.187
306.636
315.387
444.382
316.187
444.382
444.382
458.109
316.187
444.382
316.187
304.944
316.187
315.387
444.382
458.109
326.674
315.387
304.414
316.187
316.187
315.387
458.109
315.387
315.387
444.382
863.02
444.382
315.387
315.387
315.387
444.382
444.382
444.382
316.187
444.382
316.187
747.515
328.896
315.387
315.387
315.387
444.382
316.187
458.109
327.692
315.387
316.187
444.382
458.109
458.109
444.382
458.109
458.109
330.984
444.382
458.109
315.387
315.387
316.187
444.382
444.382
458.109
458.109
316.187
444.382
458.109
458.109
316.187
444.382
857.337
315.387
444.382
316.187
458.109
315.387
444.382
458.109
316.187
444.382
315.387
458.109
444.382
315.387
316.187
458.109
444.382
444.382
315.387
444.382
458.109
315.387
458.109
316.187
316.187
885.096
316.187
315.387
315.387
315.387
313.135
458.109
315.387
316.187
818.507
316.187
444.382
458.109
458.109
444.382
458.109
315.387
458.109
316.187
316.187
316.187
315.387
316.187
315.387
315.387
316.187
458.109
316.187
316.187
458.109
315.387
315.387
316.187
303.379
458.109
315.387
315.387
458.109
316.187
458.109
458.109
315.387
444.382
444.382
315.387
444.382
316.187
311.638
316.187
315.387
315.387
315.387
315.387
315.387
305.714
444.382
458.109
885.563
316.187
325.409
444.382
315.387
315.387
458.109
315.387
316.187
315.387
315.387
315.387
444.382
316.187
315.387
444.382
315.387
458.109
316.187
315.387
316.187
444.382
458.109
316.187
444.382
444.382
315.387
315.387
315.387
444.382
316.187
302.196
850.93
444.382
315.387
315.387
316.187
458.109
458.109
458.109
315.387
316.187
315.387
458.109
444.382
315.387
325.776
316.187
316.187
315.387
444.382
316.187
458.109
316.187
444.382
444.382
316.187
316.187
444.382
747.515
316.187
458.109
853.367
786.547
819.922
444.382
444.382
458.109
315.387
315.387
458.109
316.187
458.109
316.187
315.387
458.109
315.387
315.387
444.382
315.387
733.222
745.096
444.382
444.382
316.187
316.187
315.387
458.109
315.387
458.109
315.387
315.387
444.382
458.109
444.382
321.924
310.163
316.187
315.387
458.109
315.387
444.382
315.387
444.382
315.387
444.382
444.382
316.187
315.387
458.109
315.387
444.382
316.187
444.382
458.109
458.109
458.109
315.387
444.382
458.109
747.383
458.109
458.109
315.387
444.382
315.387
315.387
316.187
315.387
316.187
315.387
444.382
458.109
761.698
316.187
316.187
444.382
315.387
315.387
315.387
315.387
444.382
444.382
316.187
316.187
315.387
315.387
819.497
301.879
458.109
444.382
444.382
315.387
444.382
303.661
458.109
315.387
444.382
458.109
316.187
444.382
316.187
315.387
316.187
860.521
458.109
330.984
315.387
315.387
315.387
316.187
458.109
316.187
315.387
444.382
315.387
316.187
315.387
458.109
316.187
316.187
458.109
444.382
747.383
315.387
315.387
444.382
444.382
906.638
458.109
315.387
315.387
444.382
458.109
315.387
458.109
444.382
444.382
315.387
316.187
458.109
830.699
458.109
315.387
458.109
458.109
316.187
316.187
316.187
316.187
444.382
458.109
458.109
458.109
316.187
315.387
316.187
315.387
444.382
444.382
444.382
444.382
458.109
444.382
444.382
314.346
316.187
315.387
315.387
458.109
458.109
444.382
444.382
444.382
315.387
761.456
316.187
316.187
315.387
458.109
458.109
315.387
316.187
315.387
458.109
316.187
444.382
444.382
315.387
315.387
315.387
315.387
316.187
316.187
316.187
316.187
315.387
315.387
444.382
315.387
444.382
316.187
444.382
444.382
444.382
315.387
315.387
866.561
316.187
444.382
458.109
444.382
458.109
315.387
444.382
794.357
315.387
303.034
458.109
444.382
444.382
795.923
315.387
315.387
315.387
458.109
303.303
322.429
315.387
867.074
458.109
315.387
316.187
316.187
316.187
315.387
316.187
458.109
315.387
301.976
316.187
444.382
444.382
444.382
444.382
444.382
315.387
458.109
865.048
444.382
444.382
444.382
316.187
315.387
315.387
444.382
315.387
315.387
315.387
315.387
316.187
444.382
444.382
458.109
315.387
444.382
315.387
458.109
315.387
782.245
781.406
444.382
316.187
458.109
458.109
316.187
458.109
317.114
444.382
315.387
316.187
316.187
868.072
316.187
444.382
458.109
315.387
444.382
315.387
315.387
316.187
316.187
316.187
444.382
316.187
829.598
458.109
306.552
458.109
458.109
819.497
315.387
444.382
444.382
444.382
315.387
458.109
444.382
316.187
315.387
315.387
458.109
444.382
302.067
444.382
444.382
316.187
458.109
444.382
458.109
444.382
458.109
444.382
444.382
313.904
316.187
444.382
458.109
315.387
315.387
458.109
444.382
316.187
324.354
316.187
444.382
444.382
315.387
458.109
444.382
458.109
308.653
315.387
315.387
316.187
316.187
316.187
316.187
315.387
444.382
458.109
786.547
784.939
458.109
444.382
316.187
444.382
316.187
325.947
444.382
315.387
316.187
458.109
458.109
310.163
444.382
444.382
316.187
444.382
444.382
444.382
444.382
458.109
444.382
458.109
444.382
444.382
316.187
458.109
458.109
444.382
458.109
316.187
323.498
316.187
316.187
444.382
458.109
315.387
444.382
444.382
458.109
315.387
315.387
444.382
458.109
316.187
315.387
458.109
444.382
458.109
458.109
444.382
315.387
444.382
458.109
316.187
316.187
444.382
458.109
315.387
315.387
444.382
458.109
444.382
444.382
867.074
315.387
316.187
316.187
316.187
316.187
444.382
315.387
315.387
316.187
444.382
458.109
444.382
458.109