<?xml version="1.0"?>
<VTKFile type="PolyData" version="0.1" byte_order="LittleEndian">
  <PolyData>
    <Piece NumberOfPoints="50000" NumberOfVerts="50000" NumberOfLines="0" NumberOfStrips="0" NumberOfPolys="0">
      <Points>
        <DataArray type="Float32" NumberOfComponents="3" format="ascii">
0.410472 0.00840759 0
-0.390347 0.00277163 0
0.397823 -0.0030373 0
0.415394 -0.00252308 0
-0.339713 0.00625801 0
-0.285464 0.00202576 0
0.136553 -0.0268995 0
-0.350936 -0.000195759 0
0.120428 -0.0210171 0
-0.027992 0.00903201 0
0.312074 -0.0132685 0
0.396168 0.0076277 0
-0.228882 0.00704186 0
-0.162697 -0.0253437 0
-0.426446 0.00215866 0
0.32179 0.0122706 0
-0.0598078 -0.00241403 0
0.412038 0.00134375 0
0.15608 0.00119576 0
-0.390886 0.00363042 0
-0.409495 0.00549957 0
0.357101 0.00661813 0
-0.404245 0.00244112 0
0.401663 -0.000363324 0
0.255867 -0.0133544 0
0.299285 0.0129871 0
-0.400962 -0.00795108 0
0.412522 -0.00383802 0
-0.287197 0.0239736 0
-0.421945 0.0091726 0
-0.317743 0.0122265 0
-0.295489 -0.0171816 0
0.408583 0.000474561 0
0.411346 -0.00141818 0
0.0781459 0.00503008 0
0.418248 -0.00202989 0
0.126831 0.00127553 0
-0.41839 0.00244704 0
-0.39172 -0.00556806 0
-0.435337 -0.00274886 0
0.301691 0.0132342 0
0.318862 0.00604068 0
-0.39965 -0.0025691 0
0.405993 0.00037892 0
0.420779 0.00101583 0
-0.411564 0.00883143 0
0.40002 0.00474422 0
0.205081 -0.0156508 0
0.394953 1.62532e-05 0
0.404346 -0.000155405 0
0.169504 0.0218833 0
-0.403454 -0.00120604 0
-0.280675 0.00954113 0
0.399076 0.00267997 0
-0.397236 0.00239963 0
-0.42347 0.00255471 0
0.410987 -0.00163461 0
0.165863 0.0117178 0
0.307399 0.00751952 0
0.424327 -0.00534918 0
0.346541 0.00464808 0
0.415357 0.00241435 0
0.0914254 -0.0333054 0
0.424304 -0.00211415 0
-0.137055 0.0172294 0
-0.396011 0.00139536 0
0.403262 -0.00122103 0
0.414336 -0.000940728 0
0.428596 0.00388132 0
0.296639 0.000756054 0
-0.400739 0.0032825 0
0.402678 0.00357404 0
0.219845 0.00101118 0
0.22483 0.00678759 0
0.191678 0.00508364 0
-0.406552 -0.00262807 0
0.352172 0.0125991 0
-0.386061 0.00438328 0
0.31057 0.0068384 0
-0.422558 0.00163032 0
-0.213263 -0.0347278 0
-0.413936 0.00447403 0
0.380691 0.00498941 0
-0.402337 0.000637194 0
0.423804 -0.00511621 0
-0.403437 0.0033709 0
0.424549 -0.00501848 0
-0.181722 -0.00882654 0
-0.175851 0.0234299 0
-0.406837 -0.00731513 0
0.399036 0.00658721 0
-0.397971 -0.000661448 0
0.401093 -0.00205836 0
-0.274552 0.019923 0
-0.0416637 -0.0224405 0
-0.358122 0.00534087 0
0.400283 0.00868138 0
-0.410339 0.00330458 0
-0.432835 0.00748208 0
-0.429332 -0.00107064 0
-0.360039 -0.00775513 0
-0.399451 -0.00577841 0
0.42736 -0.000852877 0
-0.173319 -0.0211345 0
0.430385 -0.000716576 0
0.352386 0.012777 0
0.259143 0.00667032 0
0.0205972 0.00793713 0
0.395604 0.00445179 0
-0.404817 -0.00474131 0
-0.305495 0.0199842 0
-0.410744 0.00321301 0
-0.350654 0.0106935 0
303.151 438.524 0
0.269804 0.00735426 0
-0.404831 0.00361885 0
-0.419786 0.00449061 0
7.78878 10.6548 0
-0.407738 0.00166688 0
-0.0210012 -0.0089549 0
0.412677 -0.00161173 0
-0.393306 -0.00387618 0
0.278464 -0.00369432 0
-0.376173 0.0075045 0
0.405089 -0.00085426 0
0.393714 -0.00111817 0
0.129334 0.0242368 0
0.416185 0.00435185 0
-0.364823 -0.00705095 0
0.314078 -0.00105647 0
0.418516 -0.0033802 0
0.41518 -0.000570997 0
-0.431125 0.000736005 0
-0.359696 0.0040746 0
0.425162 -0.00198689 0
0.404097 -0.00119855 0
0.389711 -0.00298712 0
-0.0651662 0.00310883 0
0.325884 -0.0145157 0
0.317032 -0.0122149 0
0.325746 -0.014748 0
0.386598 0.00966433 0
0.417634 -0.00359731 0
-0.097334 -0.0142876 0
-0.41792 0.00680868 0
0.277402 -0.0229923 0
-0.267859 0.0202995 0
-0.412294 0.00198748 0
-0.295032 -0.0202851 0
-0.413582 0.00370792 0
0.315221 0.00740249 0
0.401382 0.0021727 0
-0.125853 -0.0120885 0
0.326905 -0.0105921 0
0.325089 0.00839087 0
0.397994 0.00381797 0
0.27256 -0.00997008 0
-0.40526 0.00278468 0
-0.175156 -0.00616363 0
0.416446 -0.000535452 0
0.278228 -0.00179886 0
-0.367776 -0.00308263 0
-0.398181 0.00251405 0
-0.41399 0.00258148 0
-0.10735 0.0100649 0
0.320819 -0.00655992 0
0.362635 -0.00581866 0
0.367338 0.00361617 0
0.306986 0.00791159 0
-0.170409 0.000493896 0
0.428938 -0.00513753 0
-0.396911 0.00310418 0
-0.0944953 -0.0060988 0
0.414516 0.00426413 0
-0.0760893 -0.00362019 0
-0.320706 0.0158969 0
-0.397984 0.00247003 0
-0.242417 -0.0113148 0
-0.40345 -0.00243647 0
-0.4052 -0.00677109 0
0.397432 -0.000246859 0
-0.409865 0.00646094 0
-0.403645 0.00543872 0
0.410283 0.00528239 0
0.400305 -0.00108816 0
0.309591 -0.0177429 0
0.429853 -0.00364405 0
0.42535 0.00028298 0
0.41239 -0.003922 0
0.0459306 0.0299833 0
0.419429 -0.00388907 0
0.339701 -0.00942562 0
-0.273866 -0.0187931 0
0.378115 0.00638972 0
-0.37515 0.00638929 0
0.397343 0.00161427 0
-0.334337 0.0118476 0
-0.356203 0.0053036 0
-0.399669 0.00383939 0
0.402325 0.00487228 0
-0.267214 0.0191854 0
0.424258 0.0026067 0
0.368009 -0.00571525 0
-0.0842391 -0.00733936 0
0.42964 -0.00524092 0
-0.393859 -0.00823446 0
0.0557794 0.0486278 0
0.17024 -0.0069088 0
-0.35679 0.0107985 0
-0.251547 -0.0104706 0
0.39346 0.00042702 0
-0.175635 -0.0214885 0
0.370815 -0.00388256 0
-0.344829 0.0111191 0
-0.236573 -0.016221 0
-0.413918 0.00608987 0
-0.408401 0.00775401 0
0.407828 -0.000462222 0
-0.419885 -0.0015412 0
-0.0496313 0.0212829 0
-0.323094 0.0118431 0
-0.419002 0.00360116 0
-0.389129 -0.0066341 0
0.426062 -0.00317301 0
0.15085 0.025029 0
-0.398218 0.00299682 0
0.428341 0.000994821 0
0.410871 -0.00101983 0
-0.354052 0.00983792 0
-0.417272 -0.00071665 0
-0.410635 -0.00401743 0
0.399668 0.00416758 0
0.20834 0.0239287 0
-0.0636724 0.0151661 0
-0.425031 0.00440864 0
-0.366016 0.00589291 0
0.314395 -0.0180183 0
-0.322265 -0.00467571 0
-0.406206 0.00328205 0
0.248943 -0.00313659 0
0.420461 -0.000203216 0
-0.372922 -0.00703596 0
-0.410852 0.003324 0
-0.237922 -0.0144275 0
0.205293 0.00682386 0
0.36718 0.00410675 0
-0.388001 0.00705646 0
0.411222 -0.0010167 0
0.423454 0.00254962 0
0.242813 0.0126497 0
0.253271 0.00431473 0
-0.386373 0.00503891 0
0.397342 -0.00315948 0
-0.183075 -0.00972467 0
-0.373806 0.0081751 0
0.397905 -0.00045422 0
-0.362318 0.00796909 0
0.352274 0.00901668 0
0.152637 0.0237264 0
0.220184 0.000121487 0
0.423235 0.000764535 0
-0.38623 0.00486277 0
0.0771942 -0.00855901 0
0.0385212 -0.014394 0
-0.275607 0.00336001 0
-0.405602 0.000965131 0
-0.39947 0.00285992 0
-0.396636 -0.00154392 0
0.407591 -0.00121888 0
0.404486 -0.000987841 0
0.416644 -0.00114116 0
-0.409219 -0.00304014 0
0.267312 0.00298382 0
0.0219589 0.0125994 0
-0.427425 0.00501226 0
-0.415615 0.00221331 0
0.395863 -0.000572516 0
-0.397238 0.00294552 0
0.393155 0.00647502 0
-0.402986 -0.00160439 0
-0.390856 -0.000269407 0
-0.181176 -0.0235037 0
-0.409411 0.00238915 0
0.386536 -0.00239838 0
-0.348047 0.0108019 0
-0.392041 -0.00340886 0
-0.155749 0.0201338 0
-0.408187 0.00321393 0
-0.414672 0.00375561 0
0.348615 -0.00331629 0
-0.145747 0.00677781 0
0.407027 -0.00113256 0
0.415962 -0.00313963 0
0.26523 0.0140071 0
0.422578 0.00321056 0
0.401084 0.00614623 0
0.420959 0.00413343 0
-0.280781 0.0236127 0
-0.383451 0.00197367 0
-0.426351 0.000822532 0
0.431673 0.000758948 0
-0.0578969 0.00737824 0
0.405678 -0.00197415 0
0.395896 0.00317825 0
0.417753 -0.000936778 0
0.071447 0.012279 0
-0.215314 0.025339 0
0.351804 0.00531569 0
-0.0495051 0.000268755 0
-0.200439 0.00938175 0
-0.335409 0.0116258 0
0.406847 0.0065937 0
-0.296997 0.0146679 0
0.376645 -0.00562953 0
0.31037 -0.00499355 0
-0.424918 0.00627665 0
0.331149 -0.0151317 0
0.427214 -0.00547402 0
0.382015 -0.00323856 0
0.408201 0.00736291 0
-0.414557 0.00535359 0
-0.0910988 0.0151812 0
0.416634 0.00194686 0
0.414674 -0.0011355 0
0.191332 0.0250865 0
-0.395561 -0.000566476 0
-0.388133 0.00500386 0
0.426911 0.000331835 0
-0.396793 -0.00320094 0
0.411683 0.00235768 0
0.414636 -0.0026568 0
0.198556 -0.0239939 0
0.397251 0.00341688 0
-0.407173 0.00326462 0
-0.348423 -0.000745418 0
-0.234055 -0.00270554 0
0.0327118 -0.00802276 0
0.0493814 -0.0300352 0
-0.373515 0.00331581 0
0.184698 -0.0266301 0
-0.0437503 0.0411667 0
-0.420389 0.00608969 0
-0.300547 0.0137446 0
-0.410408 0.00442603 0
-0.170273 -0.0139464 0
0.414366 0.00681921 0
-0.291861 0.015455 0
-0.415372 -0.000148034 0
-67.0133 277.182 0
0.413471 -0.00551336 0
0.412403 -0.00129374 0
-0.338647 0.0142834 0
0.400915 0.00285431 0
0.380377 -0.00118294 0
-598.748 -1070.77 0
0.126386 0.0147606 0
-0.411131 0.00369357 0
-0.341963 -0.00262194 0
0.409505 0.00344344 0
4.23061 -8.71575 0
0.387618 0.00493165 0
-0.40236 -0.00619537 0
-0.257041 0.000156282 0
-0.408621 -0.00341984 0
-0.416613 0.00676663 0
0.406431 -0.0011793 0
-0.423171 -0.00154899 0
-0.366921 0.00922416 0
0.318987 0.012647 0
-0.398773 -2.54605e-05 0
-0.332432 0.0142982 0
-0.368752 0.00825032 0
0.41068 0.00414752 0
0.370287 -0.00723493 0
-0.245651 0.0192686 0
0.422167 -0.00226216 0
-0.411318 -0.00581969 0
-0.382737 -0.00378876 0
-0.41577 0.00121066 0
0.0358263 -0.0318307 0
-0.400275 -0.00550795 0
0.405002 0.00418161 0
-0.408024 0.00366197 0
-0.405784 0.00195058 0
-0.100172 0.015282 0
0.26525 0.0138158 0
-0.132878 0.0369952 0
0.0872153 0.0208936 0
-0.411674 0.00390612 0
-0.0746108 0.00358382 0
-0.412412 -0.00105317 0
-0.414556 0.00551659 0
0.395871 -0.00607131 0
0.348796 0.00947109 0
-0.387898 0.00644561 0
0.367854 0.00482533 0
0.365449 0.00126326 0
-0.395595 0.00303909 0
-0.218517 -0.0072942 0
0.289126 -0.0176455 0
-0.396039 0.000787828 0
0.350139 -0.00917427 0
0.16022 -0.0049866 0
-0.40714 -0.00107847 0
0.380353 -0.00073767 0
0.400122 -0.00247893 0
0.406288 -0.0049226 0
0.413927 -0.00170311 0
0.420975 -8.44361e-05 0
0.398915 0.00688587 0
-0.409755 0.00275478 0
0.294443 0.00974625 0
-0.338629 -0.00519862 0
0.193396 0.0271185 0
-0.385793 0.00271242 0
-0.137975 -0.00576354 0
-0.320036 0.0118903 0
0.116641 -0.0143494 0
-0.418287 0.0039158 0
0.399485 -0.00120019 0
-0.112897 0.0300206 0
0.143021 0.0157574 0
-0.423916 0.00338227 0
0.402368 0.00179974 0
0.414788 -0.00080372 0
0.396259 0.00867771 0
0.423575 -0.00486295 0
-0.404177 0.00325482 0
-0.416955 0.00250545 0
[...]
      <PointData Scalars="T">
        <DataArray type="Float32" Name="T" format="ascii" NumberOfComponents="1">
315.587
437.898
314.873
314.873
437.898
437.898
314.873
451.41
314.873
437.898
314.873
315.587
437.898
451.41
437.898
315.587
451.41
305.441
303.651
437.898
437.898
315.587
437.898
314.873
314.873
315.587
451.41
314.873
437.898
437.898
437.898
451.41
307.369
314.873
315.587
314.873
303.806
437.898
451.41
451.41
315.587
315.587
451.41
310.776
301.696
437.898
315.587
314.873
328.213
314.873
315.587
451.41
437.898
315.587
437.898
437.898
314.873
315.587
315.587
314.873
315.587
315.587
314.873
314.873
437.898
835.438
314.873
314.873
315.587
303.253
437.898
315.587
301.696
315.587
315.587
451.41
315.587
437.898
315.587
749.793
451.41
437.898
315.587
739.737
314.873
437.898
314.873
451.41
437.898
451.41
315.587
451.41
314.873
437.898
451.41
437.898
315.587
437.898
437.898
451.41
451.41
451.41
314.873
451.41
314.873
315.587
315.587
315.587
315.587
451.41
437.898
437.898
437.898
315.587
315.587
437.898
437.898
315.587
760.767
451.41
314.873
451.41
314.873
437.898
314.873
314.873
315.587
315.587
451.41
314.873
314.873
314.873
873.227
437.898
314.873
314.873
314.873
437.898
314.873
314.873
314.873
315.587
314.873
451.41
437.898
314.873
437.898
437.898
451.41
437.898
315.587
315.587
451.41
314.873
315.587
315.587
314.873
437.898
451.41
314.873
314.873
451.41
437.898
437.898
437.898
314.873
314.873
315.587
315.587
763.305
314.873
437.898
451.41
315.587
451.41
437.898
437.898
451.41
451.41
451.41
314.873
437.898
437.898
315.587
314.873
314.873
314.873
315.127
314.873
315.587
314.873
314.873
451.41
315.587
437.898
313.283
437.898
437.898
437.898
315.587
437.898
315.587
314.873
451.41
314.873
451.41
315.587
314.873
437.898
451.41
309.409
451.41
314.873
437.898
451.41
437.898
437.898
314.873
451.41
437.898
437.898
437.898
451.41
314.873
315.587
437.898
301.819
314.873
437.898
451.41
451.41
315.587
315.587
437.898
437.898
437.898
314.873
451.41
437.898
314.873
314.873
451.41
437.898
451.41
315.587
315.587
437.898
314.873
315.587
315.587
315.587
437.898
314.873
451.41
437.898
314.873
437.898
315.587
315.587
320.416
303.027
437.898
314.873
314.873
437.898
776.039
437.898
451.41
314.873
314.873
314.873
451.41
315.587
315.587
437.898
437.898
314.873
437.898
315.587
451.41
451.41
451.41
437.898
314.873
437.898
451.41
437.898
437.898
437.898
314.873
437.898
314.873
314.873
315.587
315.587
315.587
315.587
437.898
437.898
774.009
303.253
437.898
314.873
315.587
314.873
315.587
437.898
315.587
731.222
437.898
437.898
315.587
437.898
314.873
314.873
437.898
314.873
314.873
314.873
315.587
437.898
437.898
315.587
314.873
315.587
451.41
437.898
312.594
451.41
315.587
314.873
314.873
315.587
437.898
451.41
451.41
314.873
314.873
437.898
314.873
437.898
437.898
437.898
437.898
451.41
315.587
437.898
451.41
437.898
314.873
314.873
437.898
315.587
314.873
451.41
315.587
437.898
451.41
315.587
314.873
315.587
451.41
739.787
451.41
437.898
314.873
451.41
437.898
315.587
451.41
437.898
437.898
315.587
314.873
437.898
314.873
451.41
451.41
839.508
314.873
451.41
315.587
437.898
437.898
437.898
315.587
437.898
315.587
437.898
437.898
451.41
437.898
314.873
315.587
437.898
315.587
303.811
437.898
451.41
314.873
765.793
314.873
314.873
451.41
314.873
314.873
314.873
314.873
314.873
315.587
437.898
315.587
451.41
315.587
437.898
451.41
437.898
314.873
437.898
314.873
437.898
315.587
437.898
324.42
314.873
315.587
314.873
437.898
437.898
314.873
437.898
315.587
437.898
315.587
823.003
451.41
437.898
437.898
315.587
304.941
437.898
314.873
713.634
451.41
451.41
437.898
451.41
315.587
314.873
451.41
315.587
451.41
451.41
314.873
314.873
451.41
437.898
747.789
451.41
305.305
451.41
318.209
437.898
451.41
314.873
315.587
451.41
451.41
437.898
437.898
315.587
749.416
314.873
314.873
315.587
437.898
437.898
437.898
314.873
315.587
767.69
451.41
451.41
437.898
303.957
315.587
314.873
302.386
437.898
315.587
315.587
301.792
437.898
315.587
314.873
451.41
314.873
437.898
437.898
437.898
451.41
451.41
451.41
451.41
451.41
314.873
314.873
314.873
315.587
314.873
315.587
315.587
451.41
315.587
437.898
314.873
315.587
437.898
315.587
437.898
754.519
437.898
748.848
315.587
314.873
315.587
314.873
314.873
314.873
437.898
315.587
315.587
712.842
315.587
725.88
437.898
451.41
314.873
314.873
437.898
437.898
451.41
451.41
451.41
315.587
315.587
328.065
315.587
451.41
437.898
315.587
437.898
308.888
315.587
451.41
437.898
314.873
437.898
315.587
315.587
451.41
315.587
451.41
314.873
788.514
437.898
303.651
314.873
451.41
451.41
775.83
437.898
437.898
315.587
314.873
314.873
303.785
315.587
451.41
749.823
451.41
451.41
437.898
315.587
314.873
437.898
315.587
451.41
301.865
315.587
319.354
437.898
315.587
451.41
834.868
315.587
314.873
451.41
315.587
437.898
314.873
314.873
315.587
314.873
451.41
451.41
437.898
887.571
315.587
451.41
314.873
451.41
451.41
315.587
314.873
451.41
451.41
437.898
437.898
314.873
314.873
437.898
451.41
451.41
315.587
314.873
437.898
437.898
314.873
314.873
315.587
315.587
437.898
451.41
451.41
451.41
451.41
315.587
437.898
315.587
315.587
451.41
437.898
314.873
314.873
451.41
437.898
314.873
451.41
451.41
437.898
314.873
451.41
437.898
315.587
437.898
437.898
314.873
315.587
437.898
315.587
314.873
437.898
315.587
314.873
437.898
437.898
314.873
314.873
314.873
315.587
315.587
451.41
451.41
437.898
437.898
315.587
437.898
451.41
306.437
315.587
437.898
437.898
437.898
314.873
315.587
315.587
315.587
437.898
314.873
314.873
791.314
437.898
315.587
314.873
315.587
315.587
315.587
437.898
315.587
315.587
314.873
437.898
315.587
437.898
314.873
315.587
314.873
315.587
314.873
437.898
328.065
795.882
315.587
437.898
437.898
437.898
314.873
451.41
315.587
437.898
314.873
315.587
451.41
314.873
789.54
451.41
451.41
437.898
437.898
437.898
314.873
314.873
314.873
314.873
314.873
731.222
315.587
437.898
451.41
314.873
314.873
437.898
305.305
437.898
315.587
437.898
437.898
437.898
451.41
451.41
306.437
437.898
315.587
437.898
451.41
437.898
451.41
451.41
314.873
315.587
314.873
437.898
451.41
437.898
437.898
451.41
437.898
451.41
315.587
437.898
451.41
314.873
314.873
314.873
437.898
437.898
451.41
315.587
451.41
303.957
437.898
451.41
451.41
315.587
314.873
315.587
311.941
314.873
437.898
437.898
314.873
437.898
315.587
437.898
315.587
437.898
451.41
315.587
437.898
309.633
437.898
437.898
314.873
303.651
451.41
315.587
314.873
306.872
315.587
437.898
451.41
451.41
315.587
437.898
311.222
315.587
314.873
314.873
451.41
437.898
315.122
437.898
437.898
314.873
314.873
315.587
314.873
437.898
451.41
315.587
437.898
315.587
315.587
437.898
437.898
315.587
842.851
314.873
314.873
437.898
437.898
314.873
306.314
437.898
451.41
451.41
315.587
308.306
749.823
437.898
437.898
745.929
451.41
314.873
437.898
314.873
437.898
314.873
314.873
765.592
314.873
437.898
315.587
314.873
437.898
451.41
315.587
314.873
315.587
315.587
315.587
315.587
437.898
315.587
314.873
451.41
314.873
315.587
437.898
314.873
314.873
315.587
437.898
437.898
451.41
314.873
451.41
314.873
451.41
437.898
437.898
315.587
451.41
451.41
451.41
314.873
802.705
437.898
314.873
315.587
451.41
451.41
314.873
437.898
314.873
314.873
451.41
315.587
451.41
315.587
314.873
315.587
314.873
315.587
315.587
437.898
315.587
314.873
314.873
437.898
314.873
451.41
437.898
451.41
314.873
315.587
437.898
451.41
437.898
314.873
437.898
437.898
314.873
314.873
315.587
315.587
437.898
437.898
314.873
437.898
315.587
437.898
451.41
309.633
451.41
314.873
437.898
451.41
437.898
437.898
437.898
738.133
451.41
437.898
437.898
315.587
767.503
314.873
314.873
314.873
314.873
315.587
437.898
314.873
437.898
315.587
437.898
315.587
315.587
451.41
315.587
437.898
314.873
315.587
314.873
451.41
314.873
437.898
305.103
451.41
451.41
315.587
451.41
437.898
437.898
451.41
314.873
315.587
315.587
315.587
451.41
314.873
451.41
314.873
315.132
315.587
315.587
315.587
314.873
314.873
451.41
315.587
315.587
451.41
437.898
314.873
437.898
301.824
437.898
451.41
437.898
749.416
451.41
437.898
315.587
451.41
315.587
437.898
314.873
437.898
315.587
437.898
437.898
315.587
315.587
437.898
314.873
315.587
314.873
308.888
451.41
437.898
451.41
878.111
314.873
437.898
321.479
437.898
437.898
314.873
314.873
437.898
315.587
314.873
314.873
314.873
437.898
314.873
315.587
437.898
437.898
437.898
451.41
437.898
314.873
437.898
314.873
451.41
323.796
314.873
315.587
437.898
451.41
451.41
437.898
314.873
315.587
451.41
314.873
303.054
451.41
451.41
314.873
437.898
305.441
314.873
315.587
451.41
437.898
437.898
437.898
315.587
807.845
315.587
437.898
437.898
314.873
315.587
315.587
314.873
315.587
451.41
795.201
451.41
437.898
314.873
315.587
315.587
315.587
315.587
315.587
451.41
437.898
437.898
437.898
451.41
437.898
437.898
322.756
314.873
314.873
314.873
314.873
437.898
314.873
437.898
306.707
451.41
437.898
315.587
437.898
861.817
314.873
847.496
314.873
314.873
314.873
314.873
315.587
315.587
314.873
315.587
451.41
301.865
437.898
315.587
315.587
314.873
451.41
314.873
451.41
315.587
315.587
315.587
315.587
437.898
314.873
437.898
315.587
314.873
314.873
826.594
825.344
836.24
314.873
314.873
451.41
315.587
437.898
315.587
314.873
451.41
437.898
717.936
314.873
315.587
437.898
314.873
437.898
315.587
437.898
437.898
717.936
437.898
314.873
314.873
451.41
437.898
437.898
437.898
314.873
451.41
315.587
437.898
315.587
315.587
437.898
437.898
315.587
437.898
314.873
314.873
314.873
437.898
309.497
314.873
451.41
437.898
314.873
437.898
314.873
437.898
437.898
314.873
451.41
451.41
314.873
314.873
315.587
314.873
315.587
451.41
315.587
315.587
437.898
437.898
314.873
437.898
315.587
301.696
749.416
437.898
315.587
826.643
726.973
302.931
314.873
451.41
437.898
314.873
437.898
767.503
451.41
451.41
437.898
314.873
314.873
437.898
437.898
314.873
451.41
314.873
315.587
315.587
437.898
437.898
314.873
726.973
315.587
437.898
315.587
314.873
437.898
314.873
314.873
451.41
437.898
451.41
451.41
437.898
437.898
437.898
437.898
315.587
314.873
314.873
437.898
314.873
437.898
437.898
314.873
437.898
437.898
315.587
437.898
451.41
314.873
451.41
451.41
315.587
437.898
315.587
315.587
314.873
314.873
437.898
315.587
308.388
437.898
437.898
315.587
437.898
437.898
318.209
314.873
314.873
451.41
314.873
437.898
311.833
314.873
807.997
437.898
437.898
314.873
314.873
437.898
437.898
437.898
451.41
315.587
451.41
314.873
451.41
451.41
314.873
315.587
314.873
451.41
315.587
314.873
315.587
762.246
314.873
788.171
451.41
437.898
437.898
739.787
451.41
451.41
315.587
315.587
451.41
437.898
437.898
314.873
437.898
437.898
437.898
451.41
451.41
314.873
314.873
315.587
437.898
315.587
315.587
314.873
451.41
314.873
321.45
315.587
305.415
315.587
437.898
797.351
820.72
437.898
437.898
314.873
451.41
451.41
315.587
437.898
451.41
437.898
746.669
437.898
437.898
451.41
314.873
451.41
451.41
437.898
451.41
437.898
314.873
451.41
437.898
314.873
314.873
314.873
451.41
451.41
437.898
315.587
437.898
451.41
315.122
437.898
437.898
437.898
315.587
437.898
315.587
315.587
314.873
451.41
314.873
308.766
451.41
807.845
314.873
315.587
451.41
437.898
437.898
314.873
437.898
451.41
437.898
315.587
315.587
314.873
315.587
451.41
437.898
437.898
314.873
315.587
437.898
315.587
315.587
451.41
451.41
451.41
315.587
315.587
315.587
437.898
315.587
792.592
315.587
437.898
437.898
437.898
315.587
314.873
314.873
314.873
451.41
314.873
314.873
759.941
437.898
315.587
315.587
314.873
437.898
314.873
437.898
314.873
315.587
314.873
303.576
451.41
437.898
451.41
315.587
314.873
314.873
314.873
437.898
315.587
437.898
315.587
314.873
315.587
451.41
324.534
437.898
315.587
315.587
314.873
451.41
314.873
314.873
314.873
314.873
315.587
795.201
315.587
314.873
437.898
451.41
451.41
724.797
437.898
437.898
727.707
437.898
314.873
314.873
451.41
315.587
437.898
437.898
437.898
314.873
451.41
451.41
315.587
314.873
315.587
315.587
315.587
437.898
315.587
315.587
314.873
315.587
437.898
310.898
775.229
451.41
451.41
314.873
451.41
437.898
437.898
437.898
437.898
437.898
802.93
437.898
315.587
315.587
314.873
437.898
314.873
437.898
314.873
315.587
437.898
302.217
314.873
315.587
315.587
314.873
752.904
314.873
304.388
437.898
315.587
437.898
315.587
437.898
314.873
314.873
437.898
437.898
451.41
437.898
451.41
437.898
314.873
314.873
314.873
451.41
315.587
437.898
314.873
451.41
315.587
437.898
437.898
451.41
437.898
314.873
314.873
451.41
314.873
315.587
451.41
437.898
314.873
315.587
437.898
315.587
315.587
314.873
314.873
314.873
451.41
437.898
451.41
451.41
315.587
314.873
315.587
303.806
314.873
437.898
823.153
451.41
314.873
304.135
314.873
314.873
437.898
314.873
315.587
315.587
315.587
314.873
315.587
437.898
437.898
437.898
315.587
437.898
437.898
314.873
302.949
314.873
301.737
437.898
315.587
437.898
315.587
315.587
437.898
314.873
451.41
451.41
451.41
314.873
451.41
451.41
437.898
451.41
451.41
437.898
451.41
451.41
765.407
314.873
437.898
437.898
315.587
315.587
314.873
314.873
315.587
437.898
437.898
315.587
451.41
451.41
315.587
437.898
451.41
315.587
315.587
314.873
437.898
437.898
314.873
437.898
437.898
314.873
451.41
303.557
314.873
314.873
314.873
437.898
437.898
437.898
314.873
437.898
437.898
437.898
437.898
451.41
437.898
315.587
451.41
437.898
437.898
315.587
437.898
314.873
437.898
749.934
315.587
437.898
451.41
314.873
314.873
451.41
451.41
813.999
314.873
747.021
437.898
733.221
451.41
437.898
451.41
451.41
315.587
314.873
451.41
437.898
314.873
315.587
314.873
451.41
314.873
314.873
315.587
315.587
437.898
451.41
437.898
437.898
315.587
437.898
315.587
437.898
451.41
451.41
314.873
301.672
451.41
437.898
314.873
761.936
315.587
314.873
315.587
314.873
314.873
315.587
437.898
451.41
451.41
437.898
314.873
314.873
451.41
314.873
746.693
437.898
437.898
451.41
437.898
315.587
314.873
437.898
451.41
315.587
315.587
437.898
314.873
437.898
314.873
314.873
314.873
437.898
315.587
314.873
314.873
315.587
451.41
301.748
451.41
451.41
314.873
314.873
451.41
437.898
315.587
314.873
314.873
451.41
451.41
437.898
315.587
315.587
451.41
315.587
314.873
795.201
314.873
315.587
437.898
451.41
451.41
437.898
437.898
760.523
437.898
437.898
315.587
451.41
303.027
451.41
451.41
315.587
437.898
437.898
437.898
451.41
314.873
437.898
451.41
315.587
437.898
742.896
437.898
315.587
314.873
315.587
314.873
451.41
451.41
437.898
451.41
437.898
437.898
451.41
437.898
437.898
314.873
315.587
315.587
315.432
307.369
451.41
451.41
315.587
315.587
451.41
451.41
437.898
314.873
437.898
437.898
437.898
314.873
437.898
314.873
315.587
305.457
314.873
437.898
315.587
437.898
437.898
451.41
315.587
437.898
315.587
304.322
315.587
314.873
437.898
451.41
322.756
314.873
303.806
315.587
315.587
314.873
451.41
314.873
314.873
437.898
822.326
437.898
314.873
314.873
314.873
437.898
437.898
437.898
315.587
437.898
315.587
713.634
323.77
314.873
314.873
314.873
437.898
315.587
451.41
321.45
314.873
315.587
437.898
451.41
451.41
437.898
451.41
451.41
326.06
437.898
451.41
314.873
314.873
315.587
437.898
437.898
451.41
451.41
315.587
437.898
451.41
451.41
315.587
437.898
807.845
314.873
437.898
315.587
451.41
314.873
437.898
451.41
315.587
437.898
314.873
451.41
437.898
314.873
315.587
451.41
437.898
437.898
314.873
437.898
451.41
314.873
451.41
315.587
315.587
843.679
315.587
314.873
314.873
314.873
310.635
451.41
314.873
315.587
782
315.587
437.898
451.41
451.41
437.898
451.41
314.873
451.41
315.587
315.587
315.587
314.873
315.587
314.873
314.873
315.587
451.41
315.587
315.587
451.41
314.873
314.873
315.587
302.816
451.41
314.873
314.873
451.41
315.587
451.41
451.41
314.873
437.898
437.898
314.873
437.898
315.587
309.633
315.587
314.873
314.873
314.873
314.873
314.873
304.605
437.898
451.41
840.063
315.587
321.479
437.898
314.873
314.873
451.41
314.873
315.587
314.873
314.873
314.873
437.898
315.587
314.873
437.898
314.873
451.41
315.587
314.873
315.587
437.898
451.41
315.587
437.898
437.898
314.873
314.873
314.873
437.898
315.587
301.967
806.663
437.898
314.873
314.873
315.587
451.41
451.41
451.41
314.873
315.587
314.873
451.41
437.898
314.873
321.66
315.587
315.587
314.873
437.898
315.587
451.41
315.587
437.898
437.898
315.587
315.587
437.898
713.634
315.587
451.41
807.997
750.624
776.039
437.898
437.898
451.41
314.873
314.873
451.41
315.587
451.41
315.587
314.873
451.41
314.873
314.873
437.898
314.873
707.158
711.146
437.898
437.898
315.587
315.587
314.873
451.41
314.873
451.41
314.873
314.873
437.898
451.41
437.898
318.209
308.388
315.587
314.873
451.41
314.873
437.898
314.873
437.898
314.873
437.898
437.898
315.587
314.873
451.41
314.873
437.898
315.587
437.898
451.41
451.41
451.41
314.873
437.898
451.41
717.936
451.41
451.41
314.873
437.898
314.873
314.873
315.587
314.873
315.587
314.873
437.898
451.41
723.907
315.587
315.587
437.898
314.873
314.873
314.873
314.873
437.898
437.898
315.587
315.587
314.873
314.873
789.54
301.696
451.41
437.898
437.898
314.873
437.898
303.054
451.41
314.873
437.898
451.41
315.587
437.898
315.587
314.873
315.587
817.7
451.41
326.06
314.873
314.873
314.873
315.587
451.41
315.587
314.873
437.898
314.873
315.587
314.873
451.41
315.587
315.587
451.41
437.898
717.936
325.68
314.873
437.898
437.898
861.817
451.41
314.873
314.873
437.898
451.41
314.873
451.41
437.898
437.898
314.873
315.587
451.41
802.93
451.41
314.873
451.41
451.41
315.587
315.587
315.587
315.587
437.898
451.41
451.41
451.41
315.587
314.873
315.587
314.873
437.898
437.898
437.898
437.898
451.41
437.898
437.898
311.455
315.587
314.873
314.873
451.41
451.41
437.898
437.898
437.898
314.873
733.221
315.587
315.587
314.873
451.41
451.41
314.873
315.587
314.873
451.41
315.587
437.898
437.898
314.873
314.873
314.873
314.873
315.587
315.587
315.587
315.587
314.873
314.873
437.898
314.873
437.898
315.587
437.898
437.898
437.898
314.873
314.873
822.623
315.587
437.898
451.41
437.898
451.41
314.873
437.898
756.437
314.873
302.531
451.41
437.898
437.898
758.552
314.873
314.873
314.873
451.41
302.851
319.354
314.873
820.601
451.41
314.873
315.587
315.587
315.587
314.873
315.587
451.41
314.873
301.737
315.587
437.898
437.898
437.898
437.898
437.898
314.873
451.41
815.288
437.898
437.898
437.898
315.587
314.873
314.873
437.898
314.873
314.873
314.873
314.873
315.587
437.898
437.898
451.41
314.873
437.898
314.873
451.41
314.873
745.929
740.506
437.898
315.587
451.41
451.41
315.587
451.41
313.647
437.898
314.873
315.587
315.587
822.326
315.587
437.898
451.41
314.873
437.898
314.873
314.873
315.587
315.587
315.587
437.898
315.587
797.351
451.41
305.305
451.41
451.41
765.793
314.873
437.898
437.898
437.898
314.873
451.41
437.898
315.587
314.873
314.873
451.41
437.898
301.759
437.898
437.898
315.587
451.41
437.898
451.41
437.898
451.41
437.898
437.898
311.181
315.587
437.898
451.41
314.873
314.873
451.41
437.898
315.587
320.416
315.587
437.898
437.898
314.873
451.41
437.898
451.41
307.369
314.873
314.873
315.587
315.587
315.587
315.587
314.873
437.898
451.41
749.405
747.789
451.41
437.898
315.587
437.898
315.587
322.095
437.898
314.873
315.587
451.41
451.41
308.388
437.898
437.898
315.587
437.898
437.898
437.898
437.898
451.41
437.898
451.41
437.898
437.898
315.587
451.41
451.41
437.898
451.41
315.587
319.05
315.587
315.587
437.898
451.41
314.873
437.898
437.898
451.41
314.873
314.873
437.898
451.41
315.587
314.873
451.41
437.898
451.41
451.41
437.898
314.873
437.898
451.41
315.587
315.587
437.898
451.41
314.873
314.873
437.898
451.41
437.898
437.898
824.375
314.873
315.587
315.587
315.587
315.587
437.898
314.873
314.873
315.587
437.898
451.41
437.898
451.41
315.587
314.873
314.873
314.873
437.898
437.898
437.898
314.873
437.898
304.388
451.41
314.873
437.898
315.587
314.873
437.898
815.75
437.898
314.873
437.898
437.898
451.41
314.873
437.898
314.873
437.898
451.41
315.587
314.873
451.41
437.898
314.873
315.587
315.587
315.587
314.873
437.898
315.587
314.873
437.898
437.898
314.873
314.873
437.898
437.898
739.352
314.873
314.873
437.898
314.873
315.587
437.898
315.587
303.651
792.592
451.41
437.898
315.587
437.898