<?xml version="1.0"?>
<VTKFile type="PolyData" version="0.1" byte_order="LittleEndian">
  <PolyData>
    <Piece NumberOfPoints="15000" NumberOfVerts="15000" NumberOfLines="0" NumberOfStrips="0" NumberOfPolys="0">
      <Points>
        <DataArray type="Float32" NumberOfComponents="3" format="ascii">
0.0820219 0.00252743 0
-0.0798883 0.00115372 0
0.0799912 0.000376818 0
0.0820823 0.000376374 0
-0.0716075 0.00198971 0
-0.0480903 0.00120219 0
0.0215873 -0.0033401 0
-0.0690717 0.000625763 0
0.0223813 -0.00347291 0
-0.00846976 0.00233317 0
0.0632459 -0.00204337 0
0.0792242 0.00238459 0
-0.0578432 0.00245571 0
-0.0343221 -0.00486621 0
-0.0837561 0.00122874 0
0.0694496 0.00333352 0
-0.0160227 -5.76498e-05 0
0.0836379 0.00106865 0
0.0468716 0.00125981 0
-0.0776709 0.00134594 0
-0.0833837 0.00178363 0
0.0739321 0.00234905 0
-0.0788265 0.00119196 0
0.0799735 0.000728271 0
0.051621 -0.00212929 0
0.0581165 0.00299731 0
-0.0818486 -0.000883708 0
0.0829491 4.35486e-05 0
-0.060379 0.00551486 0
-0.0796775 0.0021749 0
-0.0667289 0.00314446 0
-0.0630073 -0.00233294 0
0.081606 0.000987859 0
0.0811077 0.000567837 0
0.020505 0.00168141 0
0.0830864 0.000440989 0
0.0385855 0.00113297 0
-0.0817882 0.00119032 0
-0.0690862 -0.000188526 0
-0.083686 0.000253274 0
0.0575903 0.00298023 0
0.065456 0.00229882 0
-0.0780974 0.000161754 0
0.0811604 0.000963768 0
0.0841989 0.00101864 0
-0.0713256 0.00198329 0
0.0803428 0.00178738 0
0.0400513 -0.00248687 0
0.0782911 0.000842697 0
0.0803965 0.000764464 0
0.0321915 0.00489275 0
-0.0788119 0.000444698 0
-0.0481121 0.00238618 0
0.079771 0.00133087 0
-0.0773511 0.00103052 0
-0.0832946 0.00136162 0
0.0820243 0.000578634 0
0.0319868 0.00287154 0
0.0663295 0.00250702 0
0.0834353 -0.000258471 0
0.0723321 0.00194289 0
0.0818227 0.00117159 0
0.0166896 -0.00595861 0
0.0837662 0.000445873 0
-0.0211937 0.00345906 0
-0.0812498 0.000968999 0
0.079377 0.000611444 0
0.0821597 0.000561833 0
0.084542 0.00156072 0
0.0569452 0.00111126 0
-0.0785798 0.00127058 0
0.0800806 0.00136132 0
0.0341095 0.000759726 0
0.0420632 0.00214892 0
0.0448846 0.00189964 0
-0.0795208 0.000199973 0
0.0748683 0.00344385 0
-0.0773748 0.00158436 0
0.0762085 0.00260689 0
-0.082094 0.00111984 0
-0.0418395 -0.00628276 0
-0.0809622 0.00149771 0
0.0755007 0.00167881 0
-0.0784275 0.00083251 0
0.0836944 -0.000195374 0
-0.0797323 0.00129445 0
0.0847458 -0.000146537 0
-0.0392148 -0.000860548 0
-0.0327012 0.00496685 0
-0.076707 -0.000552329 0
0.0799257 0.00215011 0
-0.0778176 0.000588237 0
0.0784172 0.000440613 0
-0.0511454 0.00451054 0
-0.00825626 -0.00448988 0
-0.0713881 0.00167973 0
0.079627 0.00261932 0
-0.0794892 0.00121614 0
-0.0820155 0.00204983 0
-0.0827737 0.000638421 0
-0.0742307 -0.000645926 0
-0.0784937 -0.000322321 0
0.0841185 0.000688298 0
-0.0328415 -0.00325826 0
0.0846704 0.000658106 0
0.0602834 0.00308083 0
0.0542653 0.00228701 0
0.795242 0.821038 0
0.0759119 0.00181118 0
-0.0795585 -0.000133329 0
-0.0669008 0.00507086 0
-0.0805613 0.00121486 0
-0.069035 0.00280395 0
2.08572 2.63982 0
0.064491 0.00243169 0
-0.0791016 0.00127926 0
-0.0809597 0.00149961 0
1.49717 2.84491 0
-0.0795441 0.00106229 0
-0.00627356 -0.00388749 0
0.0826138 0.000550173 0
-0.0770254 -4.54581e-05 0
0.0467519 0.000612769 0
-0.0725521 0.00212139 0
0.080587 0.000716161 0
0.0776171 0.000624594 0
0.0207947 0.00439767 0
0.0851916 0.00171949 0
-0.0719357 -0.000451802 0
0.0596756 0.000667849 0
0.0842732 0.000184359 0
0.0823534 0.000681679 0
-0.0834332 0.000979902 0
-0.0746931 0.00151498 0
0.0816146 0.000532769 0
0.0806455 0.000583584 0
0.0790992 0.000392269 0
-0.0206497 0.00127519 0
0.0558996 -0.00183284 0
0.0592394 -0.00145212 0
0.0619161 -0.00190582 0
0.0731489 0.00267597 0
0.0810034 0.000129135 0
-0.015061 -0.00145437 0
-0.0790631 0.00181951 0
0.0382737 -0.00258032 0
-0.0627623 0.00538269 0
-0.084186 0.00115639 0
-0.0428542 -0.00178517 0
-0.079813 0.00135515 0
0.0670363 0.00248747 0
0.080147 0.00114129 0
-0.0229421 -0.00118856 0
0.0665445 -0.00126516 0
0.0808013 0.00298675 0
0.0803399 0.00160053 0
0.0533652 -0.00108286 0
-0.079644 0.00122394 0
-0.0442525 -0.000579434 0
0.0832351 0.000765478 0
0.05636 0.000267322 0
-0.0703009 8.31536e-05 0
-0.0788651 0.00116486 0
-0.0808694 0.00115711 0
-0.0195964 0.00227551 0
0.0690681 -0.000784822 0
0.0746737 -0.000440389 0
0.0746489 0.00175226 0
0.0631741 0.00251456 0
-0.0385465 0.000615158 0
0.0853444 -0.000162946 0
-0.0777445 0.00119199 0
-0.0197457 -0.000440692 0
0.0818128 0.00166499 0
-0.0196405 -0.000150166 0
-0.0520355 0.00327968 0
-0.077671 0.00106276 0
-0.0581525 -0.000956881 0
-0.0788403 0.000210015 0
-0.0802529 -0.00050525 0
0.0786895 0.000788883 0
-0.0830733 0.00197302 0
-0.0787813 0.00178137 0
0.0826889 0.001838 0
0.0823341 0.000608414 0
0.0642889 -0.0031869 0
0.0856059 0.000134491 0
0.0852897 0.000886527 0
0.0820966 8.30796e-05 0
0.0135305 0.0108151 0
0.0839136 8.52481e-05 0
0.0710529 -0.00112034 0
-0.0462804 -0.00205102 0
0.0764788 0.00203644 0
-0.0660594 0.00180998 0
0.0816431 0.000994716 0
-0.0656118 0.00302704 0
-0.0713309 0.00168507 0
-0.0785262 0.00138231 0
0.080703 0.00181338 0
-0.068244 0.0054232 0
0.0820427 0.00136512 0
0.0751357 -0.000430615 0
-0.0213815 -0.000818514 0
0.0857177 -0.000168532 0
-0.0779252 -0.000862499 0
6.21197 6.49764 0
0.0316834 -0.000360937 0
-0.0692975 0.00272238 0
-0.0542232 -0.00118297 0
0.0787689 0.000873232 0
-0.0328666 -0.00328482 0
0.0678443 0.000230909 0
-0.0677493 0.00278274 0
-0.0483462 -0.00222038 0
-0.0803204 0.00188564 0
-0.0831337 0.00222734 0
0.0813613 0.000752042 0
-0.0791885 0.000571615 0
-0.0111906 0.00519405 0
-0.070662 0.00327737 0
-0.0825016 0.00159741 0
-0.0801143 -0.000716835 0
0.0851761 0.000213675 0
0.0212104 0.00427129 0
-0.0779248 0.00122053 0
0.0835844 0.00101432 0
0.0820855 0.000660742 0
-0.0716152 0.00268646 0
-0.0786716 0.000656516 0
-0.0799608 -4.41505e-05 0
0.0801472 0.00167003 0
0.0404327 0.00519318 0
-0.0106284 0.00305885 0
-0.0826708 0.00153311 0
-0.0664917 0.00170559 0
0.0633696 -0.00308686 0
-0.0635032 0.000113833 0
-0.0795102 0.0012657 0
0.0408203 0.000256839 0
0.0833277 0.000749055 0
-0.0532404 -0.000252095 0
-0.0804024 0.00132601 0
-0.052421 -0.00145724 0
0.0464581 0.00228433 0
0.0804382 0.00191124 0
-0.0780701 0.00209328 0
0.0816864 0.0006456 0
0.0846217 0.00148064 0
0.0578242 0.00364722 0
0.0570091 0.00196545 0
-0.0748548 0.00173096 0
0.0795033 0.000208205 0
-0.033586 -0.000647039 0
-0.0711487 0.0023098 0
0.0789307 0.000782556 0
-0.0713341 0.00222777 0
0.0687939 0.00271144 0
0.0260042 0.00489652 0
0.0465927 0.00104118 0
0.0843127 0.000960929 0
-0.0760043 0.00152568 0
0.0176198 -0.000673112 0
0.0158523 -0.00393294 0
-0.0603205 0.00151114 0
-0.0790769 0.000923815 0
-0.0783747 0.0010734 0
-0.0785529 0.000489282 0
0.0806755 0.000609915 0
0.0804845 0.000619603 0
0.0821545 0.000610334 0
-0.0804522 0.000138675 0
0.0571243 0.0016408 0
-1.78309 5.05591 0
-0.0835493 0.00157615 0
-0.0808026 0.00114596 0
0.0787339 0.000740604 0
-0.0769244 0.00108175 0
0.0779149 0.00205945 0
-0.0791795 0.000376734 0
-0.0719887 0.000622173 0
-0.0317216 -0.0033761 0
-0.0772751 0.00111016 0
0.0784095 0.000495988 0
-0.0681416 0.002716 0
-0.0827729 1.74094e-05 0
-0.0325274 0.00481856 0
-0.0793656 0.00137521 0
-0.0800171 0.00136396 0
0.0704618 0.000261927 0
-0.0315373 0.00205807 0
0.0806541 0.000611009 0
0.0830212 0.000249542 0
0.0744667 0.00455329 0
0.0831312 0.00148855 0
0.0806744 0.00199043 0
0.0856093 0.00154963 0
-0.0438228 0.00444689 0
-0.0727349 0.00100368 0
-0.082987 0.00097534 0
0.0849742 0.000948306 0
-0.013968 0.00195371 0
0.0798049 0.00047141 0
0.0772774 0.00129944 0
0.0823111 0.000644852 0
0.0154128 0.00299297 0
-0.0456894 0.00602429 0
0.0745525 0.00205629 0
-0.0121556 0.000471657 0
-0.0440083 0.0028131 0
-0.0674776 0.00293218 0
0.0811916 0.00216933 0
-0.0526498 0.00331688 0
0.074529 -0.000269446 0
0.0587061 -0.000285896 0
-0.0821208 0.00183799 0
0.0659469 -0.00218206 0
0.0850089 -0.000219347 0
0.0781527 0.00029384 0
0.0818357 0.00226286 0
-0.0806254 0.00165483 0
-0.0213458 0.00391949 0
0.080961 0.00133748 0
0.0825026 0.000614474 0
0.0571162 0.00820773 0
-0.0765228 0.000565993 0
-0.0742598 0.00167825 0
0.0846677 0.000891339 0
-0.076999 9.91964e-05 0
0.0796592 0.00130158 0
0.0825147 0.00033569 0
0.0369642 -0.00369974 0
0.0833626 0.00165756 0
-0.0817481 0.00131124 0
-0.0697882 0.000550968 0
-0.0517193 8.16321e-05 0
0.010799 -0.00086373 0
0.0150888 -0.00992856 0
-0.076835 0.00115548 0
0.0431426 -0.00547842 0
-0.00967285 0.0100146 0
-0.0813688 0.00187067 0
-0.0566109 0.00325093 0
-0.0807801 0.00150149 0
-0.0323521 -0.00151907 0
0.0829573 0.00216747 0
-0.0572615 0.00375063 0
-0.0815756 0.000718316 0
-1.38016 1.69003 0
0.0817996 -0.00034907 0
0.081746 0.000591672 0
-0.0644706 0.00333651 0
0.0801434 0.00136896 0
0.0791171 0.000674565 0
3653.83 -14132.8 0
0.0271243 0.00355455 0
-0.0800261 0.00141019 0
-0.0623234 0.000147176 0
0.0847866 0.0014664 0
1.50261 -3.04184 0
0.0771518 0.00193861 0
-0.0795907 -0.000503725 0
-0.0452902 0.00079562 0
-0.0797823 7.76361e-05 0
-0.0799047 0.00202918 0
0.0799501 0.000548664 0
-0.0793013 0.000469709 0
-0.0737931 0.00255765 0
0.0621042 0.00316775 0
-0.0794749 0.000759535 0
-0.0668333 0.00351846 0
-0.0695894 0.00231235 0
0.0844977 0.00169467 0
0.074484 -0.000665605 0
-0.0647533 0.00566182 0
0.0834098 0.000411553 0
-0.077458 -0.000254832 0
-0.0699124 2.47501e-05 0
-0.0808657 0.000958024 0
2.11657 -2.33374 0
-0.0788718 -0.000274811 0
0.0806816 0.00148748 0
-0.080104 0.00134008 0
-0.0793861 0.00109999 0
-0.0195365 0.0035618 0
0.0758029 0.00460236 0
-0.0278569 0.00844563 0
0.0196514 0.00536317 0
-0.080487 0.0014657 0
-0.0192562 0.00133737 0
-0.0806186 0.00048551 0
-0.0806596 0.00179581 0
0.0779551 -0.000218609 0
0.0693372 0.00281191 0
-0.0711857 0.00189268 0
0.0737245 0.00166088 0
0.0641439 0.0010832 0
-0.0766219 0.00110244 0
-0.0464694 -0.000614148 0
0.0546009 -0.00269338 0
-0.0763114 0.000820586 0
0.072798 -0.00116496 0
0.0300549 -6.51671e-05 0
-0.0753667 0.000457404 0
0.0689114 0.00058558 0
0.0753307 0.000295271 0
0.0838099 -0.000199592 0
[...]
      <PointData Scalars="T">
        <DataArray type="Float32" Name="T" format="ascii" NumberOfComponents="1">
501.053
14402.9
400.507
400.507
14505.3
14437.1
313.956
14404
313.956
14505.3
313.956
501.053
14505.3
13968.9
14410.9
501.053
13968.9
413.444
305.356
14403.5
14502.8
501.053
14441
307.684
313.956
501.053
13968.9
380.201
14505.3
14505.3
14505.3
13968.9
403.737
317.391
327.375
347.097
308.79
14441
13968.9
14505.6
501.053
501.053
14518.4
366.648
394.878
14505.3
422.774
313.956
385.794
334.214
501.053
14461.4
14505.3
302.235
13684.9
14399.4
321.849
501.053
501.053
313.956
501.053
315.943
313.956
347.097
14505.3
9968.02
349.007
317.391
302.659
313.886
14368.8
305.497
324.07
501.053
430.698
14516.2
501.053
14473.2
501.053
14087.6
13968.9
14479.3
316.442
14361.3
313.956
14391.1
313.956
13968.9
14505.3
13968.9
501.053
13012.2
347.097
14505.3
13968.9
14497.6
501.053
14427
14505.3
14451.8
13968.9
13968.9
308.855
13968.9
333.898
501.053
501.053
501.053
389.565
13968.9
14505.3
14427
14505.3
501.053
501.053
14368.8
14479.3
501.053
13697.9
13968.9
313.433
13968.9
349.007
14505.3
306.291
351.824
501.053
379.597
13968.9
325.156
324.403
308.855
11419.3
14471.1
309.668
327.066
405.293
14368.8
313.956
313.956
313.956
501.053
478.899
13968.9
14505.9
313.956
14505.3
14402.9
13968.9
14398.9
501.053
307.686
13968.9
313.956
501.053
302.594
313.956
14410.9
13968.9
334.214
304.29
14524.1
14423
14402.9
14505.3
313.956
313.956
435.164
501.053
14254.1
313.956
14441
13968.9
310.729
13968.9
14505.3
13697.9
13968.9
14512.9
13968.9
368.453
14505.3
14502.8
388.91
343.456
313.956
463.56
361.645
475.975
501.053
475.975
313.956
13968.9
501.053
14504.9
409.466
14505.3
14498.1
14413.8
389.565
14505.3
305.497
313.956
13968.9
313.956
13968.9
501.053
313.956
14505.3
13968.9
370.755
13968.9
303.542
14505.3
13968.9
14514.1
14505.3
324.07
12478.5
14505.3
14505.3
14478.8
13968.9
305.913
501.053
14410.9
394.878
325.156
14505.3
14493.9
13968.9
316.442
501.053
14505.3
14460.8
14498.6
313.956
14519.4
14365.5
303.416
315.287
13968.9
14413.9
13968.9
501.053
501.053
14505.3
343.277
301.022
501.053
501.053
14498.3
309.205
13968.9
14505.3
368.453
14505.3
501.053
501.053
507.502
366.648
14463.2
313.956
313.956
14471.1
13559.1
13715
14160.3
343.456
349.007
349.007
14518.1
304.97
14505.3
14467.2
14360.3
315.287
13771.9
501.053
14509.9
14404
13968.9
14087.6
317.273
14505.3
14525.3
14505.3
14403.8
14399.4
304.29
14505.3
349.007
303.177
501.053
301.022
501.053
302.238
14505.3
13194.9
11419.3
409.959
14505.3
324.197
302.403
343.277
501.053
14505.3
501.053
14285.5
14505.3
14505.3
501.053
14505.3
313.956
313.956
14508.2
313.956
313.956
312.89
501.053
14496.4
14505.3
302.235
349.007
501.053
12308.3
14497.6
365.445
14522.2
302.12
350.616
313.956
307.743
14412.3
12301.2
14524.1
313.956
313.956
14402.9
313.956
14505.3
14512.5
14505.3
14475.5
13968.9
501.053
14505.3
14457.7
14505.3
313.956
335.531
14505.3
305.497
314.151
313.956
501.053
14456
14518.1
300.945
313.956
501.053
13968.9
14448.3
14525
14505.3
310.861
14354.8
14505.3
501.053
14448.9
14505.3
14505.3
347.395
313.956
14505.3
385.17
13968.9
14525.2
9133.53
313.956
13968.9
301.022
14403.5
13858.2
14505.3
501.053
14505.3
501.053
14489.3
14408.9
14160.3
14503.8
313.956
501.053
14515.6
310.729
340.902
13996.5
13968.9
313.956
14373
313.956
313.956
14422
327.066
312.89
313.956
313.366
400.141
501.053
13771.9
501.053
13968.9
501.053
14301.1
13968.9
14505.3
313.956
14403.8
349.007
14505.3
501.053
14408.9
318.659
333.898
501.053
313.956
14423
14441
321.849
14505.3
501.053
14427
426.21
13221.3
13968.9
14463.3
13684.9
305.497
308.79
501.053
312.408
14347.9
12765.9
13968.9
14484.3
13968.9
501.053
313.956
14507.9
315.943
14525.3
14507.9
399.149
449.99
14518.5
14466.6
10071.3
13968.9
370.755
13968.9
386.876
14505.3
13968.9
314.151
426.21
13968.9
13968.9
14505.3
14505.3
501.053
14423.3
313.956
349.007
302.769
14505.3
14498.1
14489.3
324.07
501.053
14457.7
14505.6
13968.9
13697.9
324.569
303.508
306.291
365.445
14505.3
501.053
501.053
409.466
14410.9
501.053
313.956
14507.8
321.849
14427
14485.4
14505.3
13968.9
12765.9
13968.9
13968.9
13968.9
313.956
313.956
313.956
501.053
312.408
501.053
501.053
14525.3
501.053
14360.3
364.859
501.053
14505.3
435.164
14467.2
12772.3
14505.3
14250
501.053
313.956
501.053
325.156
338.142
313.956
14505.3
501.053
501.053
14460.4
302.338
11038.6
14402.9
13968.9
360.109
313.433
14498.1
14505.3
14504.9
12301.2
13968.9
501.053
501.053
413.444
501.053
13968.9
14484.3
327.375
14473.2
380.763
501.053
14510.5
14440.3
313.956
14509.7
301.217
501.053
13968.9
501.053
13968.9
317.391
13761.9
14505.3
409.959
313.956
13968.9
14509.7
14373
14379.5
14505.3
501.053
313.956
313.433
365.445
501.053
13968.9
13761.9
14472.4
13968.9
12244.8
300.969
313.956
14505.3
501.053
14504.9
327.879
303.508
392.845
14440.3
501.053
13968.9
13523.6
501.053
313.956
13968.9
501.053
14440.3
313.956
390.172
435.164
365.445
13968.9
14525.5
14494.9
13523.6
501.053
13968.9
313.956
14285.5
13968.9
501.053
305.626
14508.9
14507.8
14505.3
14505.3
338.142
313.956
14505.3
14507.9
13968.9
501.053
313.956
14228.5
14505.3
404.898
399.149
501.053
501.053
14360.3
13968.9
14522.2
13968.9
13968.9
300.945
14505.3
431.128
301.022
13968.9
14505.3
334.214
313.956
13968.9
14425.8
313.956
13968.9
13968.9
14441
313.366
13968.9
14437.1
501.053
14505.3
14410.9
313.956
501.053
13996.5
501.053
305.913
14087.6
501.053
370.755
14423
14505.3
313.956
325.156
305.234
501.053
301.113
13012.2
14487.7
14505.3
14498.4
501.053
14437.1
13968.9
395.207
302.659
14475.5
14440.3
14498.7
343.456
422.774
501.053
501.053
14498.3
310.17
328.551
13704.4
14489.3
303.054
335.531
501.053
501.053
315.943
14512.5
430.698
301.022
320.639
14403.5
501.053
14499.7
313.956
304.709
313.956
347.395
313.956
14505.3
315.943
13684.9
302.018
13771.9
14505.3
14505.3
313.956
13968.9
435.164
14403.7
314.151
403.328
13968.9
313.956
11419.3
12765.9
14361.3
13523.6
14505.3
14493.6
351.824
304.29
313.956
334.214
313.956
14457.7
501.053
14494.9
14458.7
405.293
352.471
14402.9
409.959
14488.6
501.053
14488.6
14505.3
14505.3
13968.9
14510.5
361.645
14505.3
501.053
14505.3
13968.9
14496.4
13147.2
13968.9
307.684
501.053
305.998
14505.3
13968.9
14503.8
14402.9
13968.9
14505.3
14525.3
501.053
14410.9
13968.9
313.956
385.17
305.234
13858.2
14496.4
14524.1
422.774
12520.7
308.79
14399.4
13968.9
12301.2
501.053
325.156
501.053
413.444
317.273
14505.3
14498.7
385.17
14505.3
501.053
13996.5
302.512
13697.9
14525.3
305.639
14434.2
318.659
14497
14487.8
352.471
318.659
14509.9
501.053
313.956
327.879
501.053
14505.3
13968.9
14404
501.053
14460.8
416.649
501.053
313.366
313.956
14487.7
14442.6
307.505
14488.6
14505.3
313.956
351.824
302.512
317.391
14484.3
13968.9
501.053
14488.6
306.853
302.238
14427
14505.3
308.386
10071.3
313.956
321.849
14423
14360.3
339.072
382.129
14505.3
13968.9
13968.9
501.053
307.686
14445.6
14505.3
14471.1
14250
13968.9
324.197
14505.3
317.273
14301.1
309.668
308.855
14359.5
317.391
13704.4
303.508
335.531
14505.3
13968.9
305.497
439.328
501.053
501.053
501.053
501.053
14423
501.053
305.913
13644
313.956
501.053
14460.8
400.141
313.956
501.053
14498.1
14471.1
13968.9
313.956
13968.9
333.898
13968.9
14423
14505.3
501.053
14525.2
14401.3
13968.9
313.956
13704.4
14471.1
313.956
302.403
13968.9
13968.9
313.956
14505.3
360.109
313.956
13012.2
501.053
13968.9
307.68
313.956
501.053
313.956
501.053
501.053
14505.3
323.858
338.142
333.898
14505.3
349.007
13968.9
14505.3
13968.9
309.205
401.742
14228.5
13968.9
14505.3
313.956
14476.9
14505.3
400.141
307.684
501.053
304.97
14425.8
13684.9
313.956
14505.3
501.053
14505.3
13968.9
507.502
14525.5
339.072
14505.9
14505.6
14505.3
14471.1
14505.3
12301.2
13968.9
14505.3
14505.3
501.053
13697.9
313.956
313.956
313.956
303.542
433.878
14505.3
307.684
14403.7
501.053
14402.9
316.442
313.886
14509.9
501.053
14505.3
313.366
388.91
313.956
12308.3
327.066
14505.3
365.445
13968.9
14518.5
501.053
13968.9
14413.8
14491.2
13968.9
313.956
501.053
501.053
501.053
13968.9
313.956
14285.5
313.956
323.858
501.053
501.053
300.945
313.956
335.531
13968.9
501.053
305.497
14510.2
14505.3
303.177
14442.6
409.466
14505.3
13968.9
14412.3
14448.9
13968.9
14403.7
301.413
13968.9
501.053
11038.6
313.956
14505.3
501.053
14505.3
14505.3
301.703
501.053
14515.6
313.956
501.053
401.146
370.755
13968.9
14505.3
14463.8
12772.3
313.956
14498.4
400.141
14497
14505.3
335.531
385.17
14487.8
501.053
313.956
310.17
313.956
14403.8
307.684
436.385
14505.3
14505.3
14505.3
14509.9
14505.3
313.956
14379.5
417.805
13968.9
492.664
488.966
501.053
14487.8
13968.9
13968.9
14497
313.956
501.053
13968.9
338.142
409.959
13968.9
13968.9
331.233
14460.8
310.151
313.956
347.395
13968.9
14505.3
14505.3
14463.3
436.385
13221.3
302.776
13701.1
14505.3
305.234
501.053
501.053
313.956
301.113
14483.7
13771.9
13968.9
14399.4
339.072
303.927
394.088
501.053
501.053
431.128
13968.9
14484.3
14484.1
14505.3
12308.3
14402.9
14402.9
382.129
313.956
313.956
310.17
343.277
14396.1
313.956
14497.6
370.755
14510.2
14493.6
501.053
14360.3
14347.9
343.456
9968.02
313.956
364.859
313.956
351.824
501.053
347.395
380.201
501.053
14510.6
407.11
14402.9
411.485
501.053
308.855
13644
313.956
14422
501.053
501.053
501.053
501.053
14505.3
313.956
14505.3
501.053
400.141
313.956
13996.5
14087.6
12772.3
313.956
313.956
13968.9
501.053
14403.8
304.754
351.824
13968.9
14494.9
13697.9
313.956
427.677
14489.3
308.855
14505.3
301.946
14466.6
14441
12244.8
14505.3
313.956
313.956
14484.9
14493.6
14505.3
14505.3
313.956
14525.3
501.053
14461.2
501.053
301.946
14505.3
14360.3
501.053
14505.3
347.807
313.956
313.956
14505.3
400.141
313.956
13968.9
14505.3
313.956
14476.9
305.234
14505.3
14360.3
305.626
13968.9
13968.9
334.214
333.898
300.993
404.898
501.053
14461.4
301.995
501.053
14505.3
14505.3
313.956
14408.9
501.053
395.207
11038.6
14437.1
501.053
9968.02
13221.3
380.763
313.956
13221.3
14402.9
313.433
14413.8
13697.9
14510.1
12765.9
14505.3
303.542
313.956
14505.3
14484.3
313.956
13968.9
338.142
501.053
501.053
14505.3
14491.2
404.898
13761.9
501.053
14425.8
501.053
312.89
14369.5
309.668
324.197
13968.9
14396.1
13968.9
13968.9
14437.1
14501.5
14408.9
14484.1
501.053
306.291
313.956
14485.4
313.956
14505.3
14476.9
324.07
14365.5
14396.1
302.776
14360.3
14509.7
328.551
13968.9
14508.9
501.053
14442.6
411.485
304.709
309.734
313.956
14498.1
305.008
302.235
14442.6
14413.9
501.053
14505.3
14505.3
370.755
317.391
307.684
13968.9
350.171
14505.3
307.686
304.29
13858.2
13996.5
13715
405.293
368.453
14505.3
14505.3
14391.1
13968.9
304.709
13968.9
313.956
13968.9
13968.9
382.129
501.053
312.408
13968.9
501.053
313.956
501.053
13221.3
349.007
14347.9
13452
14505.3
14434.2
14347.9
14505.7
14511.5
501.053
305.356
13968.9
14484.3
14505.3
313.956
14508.9
14505.3
14456
13968.9
13968.9
313.956
313.956
301.022
14476.9
501.053
501.053
349.007
14512.9
439.328
315.943
501.053
365.445
501.053
14503.8
14373
13697.9
14505.3
13621.8
343.456
13968.9
13968.9
501.053
14498.7
13968.9
14505.3
14463.8
14440.3
14379.5
14458.7
313.956
13968.9
14509.3
14505.3
13968.9
14403.7
313.956
13968.9
14505.3
313.956
385.17
339.747
13968.9
13968.9
14505.3
501.053
14391.1
13644
394.878
14505.3
14381.1
14505.3
401.742
14505.3
501.053
501.053
313.956
14509.7
417.805
318.659
13968.9
13715
303.542
501.053
13968.9
14505.3
14498.4
324.197
14473.2
14285.5
14505.3
379.597
501.053
313.956
501.053
13968.9
14505.3
14410.9
313.956
501.053
14502.8
302.638
401.742
13012.2
13968.9
14512.9
501.053
501.053
410.162
14301.1
501.053
13697.9
501.053
14505.3
14466.6
14396.1
304.754
308.855
313.956
390.172
12301.2
328.551
313.956
14373
14427
501.053
422.082
368.453
14505.3
313.956
14381.1
331.233
300.969
313.956
318.659
13012.2
14425.8
14448.9
427.677
324.403
13968.9
314.151
14505.3
501.053
14408.9
300.969
392.845
501.053
13968.9
407.4
14369.5
422.082
501.053
489.308
12301.2
313.956
313.956
313.956
378.008
302.941
14434.2
501.053
320.639
14505.3
14520.6
12301.2
11419.3
14498.3
14505.3
14448.3
14505.3
405.293
314.151
13968.9
501.053
14505.3
13704.4
14423
313.956
13968.9
13968.9
302.941
304.29
302.512
501.053
501.053
13194.9
301.138
501.053
304.348
501.053
14456
379.746
13523.6
13968.9
13968.9
313.956
13968.9
14505.3
14498.4
14505.3
14505.3
14505.3
13761.9
14505.3
306.047
303.054
313.433
14441
309.205
14301.1
320.401
501.053
14489.3
340.902
306.291
501.053
302.659
313.956
14463.8
313.956
395.207
14505.3
501.053
13704.4
501.053
14505.3
339.747
368.453
14499.7
14505.3
13968.9
14505.3
13968.9
14498.1
313.956
313.956
313.956
13968.9
501.053
14505.3
333.898
12765.9
501.053
14437.1
14505.3
13968.9
14403.7
310.17
313.956
14509.9
313.956
300.969
14518.1
14505.3
334.214
347.395
14476.9
301.703
302.776
313.956
305.626
313.956
13968.9
14505.3
13968.9
13968.9
501.053
313.956
501.053
308.79
309.734
14505.3
13684.9
14404
317.273
415.582
307.684
313.956
14475.5
313.956
501.053
301.374
386.205
324.07
501.053
14497
14476.9
14505.3
501.053
14425.8
14505.3
306.291
366.648
305.626
394.878
14484.3
501.053
14484.1
302.776
501.053
14505.3
313.956
13968.9
13968.9
13968.9
305.626
13968.9
13968.9
13621.8
13968.9
14483.7
14379.5
13968.9
14354.8
13221.3
313.956
14505.3
14494.9
501.053
422.774
313.956
343.456
501.053
14396.1
14505.3
501.053
13968.9
13968.9
501.053
14437.1
14507.8
307.505
501.053
317.391
14505.3
14403.5
313.956
14509.7
14505.3
400.507
13012.2
313.886
401.146
463.56
351.824
14505.3
14487.8
14505.3
350.616
14434.2
14505.3
14505.3
14498.4
14508.9
14498.6
501.053
13968.9
14505.3
14301.1
501.053
14494.9
309.668
14512.5
14250
501.053
14379.5
14518.4
311.393
308.855
14492.2
13644
11419.3
306.291
14347.9
14441
12244.8
13968.9
14463.2
13968.9
13968.9
302.238
372.741
13968.9
14505.3
313.956
310.729
313.956
13968.9
404.898
313.956
300.945
302.776
14505.3
13968.9
14505.3
14403.7
307.68
13996.5
501.053
14369.5
13968.9
13968.9
349.999
416.649
14504.9
14505.3
333.898
14460.4
301.374
313.956
501.053
305.998
313.956
501.053
14228.5
14525.6
14476.7
14498.6
404.898
347.807
14510.5
365.445
14452.1
14403.7
14505.3
13968.9
14471.1
307.68
313.366
14360.3
13968.9
307.686
501.053
14379.5
313.956
14466.6
308.855
313.956
305.234
14505.3
501.053
313.956
338.142
316.442
14511.5
403.737
13968.9
13968.9
350.171
343.277
14496.6
13704.4
501.053
400.507
313.956
14519.4
13968.9
14369.5
300.945
302.659
13968.9
501.053
324.197
13684.9
313.956
501.053
14505.3
14516.2
14365.5
14463.3
14505.3
13697.9
14505.3
14505.3
302.403
13968.9
380.763
14507.4
14422
401.742
13194.9
14505.3
14476.9
13968.9
313.956
14484.3
13968.9
302.018
14505.3
14476.7
14360.3
501.053
350.171
305.008
309.734
13968.9
13968.9
13771.9
13683
13704.4
14505.3
13968.9
14410.9
14402.9
313.956
327.375
501.053
492.702
409.466
13968.9
14423.3
501.053
501.053
14507.8
13968.9
13996.5
313.956
13621.8
14505.3
14505.3
372.741
14466.6
313.956
501.053
365.445
313.956
14423
389.565
14502.8
14505.3
13968.9
501.053
14505.3
501.053
413.444
302.941
386.876
14505.3
13968.9
401.146
314.151
327.879
501.053
501.053
379.746
13968.9
317.391
339.747
14461.2
14228.5
14437.1
313.956
325.156
313.956
14360.3
12772.3
14505.3
501.053
14460.2
310.729
14452.1
323.858
313.956
313.956
307.684
14505.3
301.703
13968.9
305.356
315.287
501.053
14505.3
13968.9
13968.9
14425.8
14509.7
14519.4
305.356
14484.1
12301.2
304.348
313.956
304.709
14360.3
14498.4
13968.9
13968.9
501.053
14505.3
14460.4
13968.9
302.235
14505.3
13221.3
349.007
12772.3
501.053
13968.9
324.197
13715
13968.9
501.053
14505.3
313.956
13872.2
14425.8
313.956
501.053
13968.9
14381.1
14505.3
349.007
14505.3
13968.9
313.433
14476.7
399.115
399.115
13697.9
501.053
360.109
313.956
313.956
308.79
14404
313.956
501.053
13684.9
501.053
14505.3
13968.9
14525
14498.6
13968.9
317.273
14483.7
501.053
501.053
501.053
313.956
501.053
404.898
313.956
302.769
13968.9
306.047
501.053
13968.9
449.99
313.956
302.018
507.502
13968.9
320.401
327.066
13968.9
501.053
14507.4
13968.9
399.149
14365.5
14505.3
321.849
14505.3
324.569
365.983
501.053
335.531
338.142
313.956
313.956
386.876
407.11
14403.8
13968.9
9133.53
302.941
400.141
14505.3
313.956
335.531
14250
312.408
394.088
398.057
310.861
313.956
14403.8
300.993
314.151
14494.9
305.913
13968.9
501.053
305.626
310.729
14505.3
13968.9
501.053
14368.8
14505.3
313.956
320.401
313.956
14505.3
501.053
403.737
13701.1
14228.5
313.956
313.956
303.508
13968.9
12520.7
313.956
351.824
327.375
313.956
12478.5
14463.2
313.956
382.129
501.053
316.442
313.956
14488.6
501.053
13968.9
501.053
14488.6
14471.1
324.569
360.163
14496.4
9133.53
501.053
13968.9
13684.9
10071.3
13704.4
14497
14440.3
13968.9
404.898
313.956
14487.7
308.386
14460.4
501.053
312.89
13968.9
349.007
313.956
14505.3
313.956
12484
14457.7
14498.6
14403.7
435.164
501.053
313.956
13968.9
313.956
13968.9
390.172
339.072
14369.5
14510.1
14391.1
385.794
307.693
501.053
386.876
13968.9
320.639
14478.8
335.531
14505.3
350.171
14396.1
14511.5
501.053
313.956
13968.9
407.4
14507.4
308.386
14505.3
13968.9
13968.9
13968.9
313.956
14505.3
14525.2
13715
13968.9
13968.9
378.008
14505.3
484.576
304.348
501.053
309.205
501.053
313.956
14508.9
13968.9
9133.53
501.053
501.053
14427
399.149
314.151
305.626
399.149
14497.6
14503.8
501.053
501.053
313.956
308.855
14361.3
361.645
14525.6
14391.1
14494.9
320.639
14505.3
327.879
14505.7
360.109
14476.9
13968.9
417.968
14463.3
501.053
313.956
501.053
13221.3
14445.6
306.853
308.646
313.956
313.956
501.053
14254.1
501.053
334.214
14505.3
334.214
501.053
313.956
14451.8
501.053
501.053
14506.4
13715
13194.9
407.4
313.956
14441
14505.3
13704.4
13147.2
335.531
313.956
14508.9
13968.9
351.824
13968.9
14505.3
14505.3
378.008
501.053
13968.9
14402.9
13968.9
313.956
14517.8
13968.9
301.693
304.97
501.053
302.238
14488.6
13968.9
13968.9
13968.9
501.053
313.956
302.594
315.287
14488.6
14441
14502.8
14391.1
13968.9
14441
13684.9
365.983
307.68
360.109
313.956
13968.9
13968.9
14441
14505.3
14505.3
313.956
13976.6
501.053
501.053
360.109
13968.9
13968.9
313.433
411.485
317.273
14507.8
501.053
14479.3
14403.8
306.291
314.151
404.898
303.416
501.053
501.053
501.053
399.115
313.956
313.956
13697.9
313.366
14467.2
501.053
14505.3
14484.3
13523.6
313.366
349.007
12772.3
501.053
14460.8
14516.2
14365.5
13968.9
313.956
14505.9
10071.3
317.391
380.763
14354.8
14496.4
14505.3
14463.8
313.956
304.348
347.097
14458.7
308.386
392.845
313.956
13096.5
14451.8
315.287
304.709
501.053
301.217
380.901
501.053
14510.1
351.824
409.61
301.946
14441
14505.3
14398.9
14488.6
14505.3
313.956
14490.8
13996.5
14505.3
14505.3
14507.4
307.693
401.146
313.956
14498.3
343.456
313.956
313.956
313.956
347.395
14511.5
14381.1
13968.9
400.507
13715
400.507
13968.9
313.956
13761.9
14365.5
14505.3
501.053
13968.9
13968.9
501.053
13968.9
304.709
14505.3
334.214
501.053
501.053
13559.1
305.497
13771.9
13968.9
313.956
14505.3
417.805
313.956
501.053
501.053
501.053
14505.3
389.565
14347.9
13968.9
340.902
13968.9
14461.4
12244.8
313.956
14505.3
14396.1
14505.3
314.151
14518.1
14476.9
394.088
350.616
313.956
13968.9
14437.1
416.649
14427
14501.5
501.053
13968.9
14460.2
13968.9
14505.3
14507.8
14505.3
14437.1
307.693
303.927
14412.3
13968.9
313.956
309.668
13968.9
14505.3
501.053
403.737
501.053
14456
14505.3
313.956
13968.9
14410.9
14510.6
380.763
313.956
313.956
340.902
501.053
308.386
501.053
313.956
14505.3
14507.9
10071.3
10071.3
14525.3
14507.4
501.053
14460.8
302.769
385.794
14489.3
331.233
501.053
13968.9
13968.9
403.737
14505.3
14505.3
501.053
14413.9
13858.2
14505.3
14505.3
14525.3
14498.3
13968.9
14508.9
14505.3
501.053
13968.9
13968.9
14505.3
13968.9
501.053
307.686
422.774
501.053
14505.3
13968.9
313.956
14505.3
14505.3
14448.9
335.531
313.956
14505.3
14496.6
501.053
313.956
13968.9
14505.3
13968.9
313.956
14505.9
313.956
14505.3
14507.8
501.053
301.946
14508.2
13968.9
320.401
397.624
14403.5
13968.9
14360.3
14505.3
14087.6
313.956
501.053
501.053
501.053
410.162
14505.3
313.956
303.177
300.969
14478.8
13968.9
14301.1
14518.5
501.053
313.956
325.156
351.824
14509.7
14505.3
14505.9
385.17
14505.3
365.445
14510.1
305.913
14505.3
300.969
347.807
14413.9
13704.4
14402.9
313.956
14505.3
14505.3
13968.9