<?xml version="1.0"?>
<VTKFile type="PolyData" version="0.1" byte_order="LittleEndian">
  <PolyData>
    <Piece NumberOfPoints="50000" NumberOfVerts="50000" NumberOfLines="0" NumberOfStrips="0" NumberOfPolys="0">
      <Points>
        <DataArray type="Float32" NumberOfComponents="3" format="ascii">
0.519981 0.0103766 0
-0.49506 0.00327053 0
0.504084 -0.0041179 0
0.526303 -0.0034711 0
-0.430966 0.00768556 0
-0.362217 0.00231744 0
0.172991 -0.0343901 0
-0.445041 -0.000485629 0
0.152491 -0.0269186 0
-0.0358121 0.011212 0
0.395486 -0.0170885 0
0.501836 0.00938469 0
-0.290457 0.00867686 0
-0.206685 -0.0324088 0
-0.540867 0.00249412 0
0.407839 0.0152962 0
-0.0761139 -0.00331694 0
0.5221 0.00143255 0
0.197659 0.00125564 0
-0.495783 0.00435728 0
-0.519316 0.00673158 0
0.452555 0.00812737 0
-0.512742 0.00284939 0
0.508856 -0.000734702 0
0.324197 -0.017196 0
0.379316 0.0162051 0
-0.50871 -0.0103317 0
0.522624 -0.00514025 0
-0.364539 0.0301542 0
-0.535121 0.0113893 0
-0.403146 0.0152515 0
-0.375058 -0.0220445 0
0.517604 0.000324973 0
0.5212 -0.00206732 0
0.0988508 0.00612036 0
0.529907 -0.00284627 0
0.160565 0.00135755 0
-0.530548 0.00286519 0
-0.496965 -0.00730773 0
-0.552235 -0.00373107 0
0.382373 0.0165187 0
0.40407 0.00739612 0
-0.50679 -0.00349312 0
0.514321 0.00020388 0
0.533183 0.00101668 0
-0.52196 0.0109568 0
0.506722 0.00573382 0
0.259823 -0.0201102 0
0.50037 -0.000251686 0
0.512256 -0.000471265 0
0.214784 0.0274979 0
-0.511613 -0.00176589 0
-0.356137 0.0118469 0
0.50555 0.00312081 0
-0.503778 0.00280121 0
-0.537095 0.00299673 0
0.520663 -0.0023481 0
0.210113 0.014601 0
0.389532 0.00927074 0
0.53759 -0.00705697 0
0.439141 0.00562878 0
0.526176 0.00278012 0
0.115734 -0.0425184 0
0.537609 -0.00295211 0
-0.174077 0.0215975 0
-0.502193 0.0015299 0
0.510931 -0.00181888 0
0.52504 -0.00146051 0
0.543147 0.00465191 0
0.375851 0.000694356 0
-0.508269 0.00391672 0
0.510125 0.00425409 0
0.278299 0.000999402 0
0.284868 0.00833977 0
0.242791 0.00618499 0
-0.515538 -0.00356755 0
0.446385 0.0157141 0
-0.489676 0.00531062 0
0.393572 0.00840858 0
-0.53595 0.00182274 0
-0.270884 -0.044322 0
-0.524968 0.00543037 0
0.48224 0.00604646 0
-0.510209 0.000569529 0
0.536926 -0.00676138 0
-0.5117 0.00402856 0
0.537898 -0.0066358 0
-0.230721 -0.0114479 0
-0.223314 0.0294658 0
-0.515886 -0.00950539 0
0.505476 0.00806942 0
-0.504663 -0.00107601 0
0.508224 -0.00287794 0
-0.348462 0.0250139 0
-0.0531515 -0.0287379 0
-0.454265 0.00652331 0
0.507055 0.0107221 0
-0.520428 0.00394564 0
-0.548928 0.00924535 0
-0.544592 -0.00160305 0
-0.456816 -0.0100814 0
-0.506525 -0.00755873 0
0.541512 -0.00135324 0
-0.220144 -0.027064 0
0.545346 -0.00117918 0
0.446651 0.0159395 0
0.328115 0.00817126 0
0.0259296 0.00982166 0
0.50135 0.00537879 0
-0.513317 -0.00624312 0
-0.387701 0.0250919 0
-0.520914 0.00383083 0
-0.44487 0.013309 0
387.476 560.505 0
0.341864 0.00905793 0
-0.513453 0.00434293 0
-0.532396 0.00545194 0
9.96119 13.6267 0
-0.517047 0.00187552 0
-0.0269444 -0.0116345 0
0.522819 -0.00231777 0
-0.498714 -0.00514485 0
0.352731 -0.00495891 0
-0.477183 0.00926603 0
0.513265 -0.00135241 0
0.49882 -0.00168837 0
0.163837 0.0304883 0
0.527424 0.0052499 0
-0.462885 -0.00918825 0
0.397975 -0.00160368 0
0.530263 -0.00455828 0
0.52607 -0.000994074 0
-0.546826 0.000688953 0
-0.456279 0.00491855 0
0.538646 -0.00279392 0
0.511943 -0.0017936 0
0.493796 -0.00405407 0
-0.0829227 0.00368757 0
0.413016 -0.0186715 0
0.401755 -0.0157521 0
0.412841 -0.0189651 0
0.489985 0.0119893 0
0.529111 -0.00483474 0
-0.12373 -0.0183789 0
-0.530021 0.00839163 0
0.351611 -0.0294266 0
-0.339972 0.0254915 0
-0.522915 0.00227672 0
-0.374524 -0.0259858 0
-0.524531 0.00445897 0
0.399455 0.00912247 0
0.508494 0.00247887 0
-0.159886 -0.0155872 0
0.414252 -0.0136939 0
0.411967 0.0103749 0
0.504153 0.00455987 0
0.345343 -0.0129052 0
-0.513939 0.00328971 0
-0.22238 -0.00807031 0
0.527595 -0.000953586 0
0.352482 -0.00254514 0
-0.466379 -0.00414289 0
-0.504963 0.00294653 0
-0.524994 0.00303328 0
-0.136395 0.0125095 0
0.406509 -0.0085823 0
0.459503 -0.00764269 0
0.46551 0.00432028 0
0.388771 0.00974504 0
-0.216353 0.000372378 0
0.543461 -0.00678686 0
-0.503368 0.00369306 0
-0.120091 -0.00798929 0
0.525098 0.00512406 0
-0.0967822 -0.00484843 0
-0.406955 0.019907 0
-0.504725 0.00288968 0
-0.307735 -0.0146008 0
-0.511615 -0.0033252 0
-0.513812 -0.00881621 0
0.503513 -0.000585024 0
-0.519759 0.00795202 0
-0.511884 0.00665511 0
0.519744 0.00641716 0
0.507181 -0.00165023 0
0.392376 -0.0227643 0
0.54462 -0.00489322 0
0.538977 8.70741e-05 0
0.522472 -0.00524564 0
0.0580637 0.037804 0
0.531407 -0.00520358 0
0.430468 -0.0122151 0
-0.347661 -0.0240917 0
0.47918 0.00783488 0
-0.475878 0.00785247 0
0.503376 0.00177159 0
-0.424192 0.014772 0
-0.45183 0.00647599 0
-0.506927 0.00462209 0
0.509644 0.0058959 0
-0.339145 0.0240782 0
0.537621 0.00303508 0
0.46632 -0.00751172 0
-0.107095 -0.00956449 0
0.544365 -0.00691788 0
-0.499431 -0.0106688 0
0.0706273 0.0615229 0
0.215594 -0.00902173 0
-0.452649 0.0134417 0
-0.319279 -0.0135316 0
0.498467 0.000267485 0
-0.223084 -0.0275133 0
0.46986 -0.00518863 0
-0.437483 0.0138479 0
-0.300335 -0.0208263 0
-0.524922 0.00748017 0
-0.517927 0.00959051 0
0.51667 -0.000860346 0
-0.53262 -0.00220009 0
-0.0632072 0.0267433 0
-0.409935 0.0147661 0
-0.531429 0.00432458 0
-0.493695 -0.00866197 0
0.539829 -0.00429554 0
0.191154 0.0314951 0
-0.505015 0.0035581 0
0.542792 0.000992066 0
0.520529 -0.00156734 0
-0.449165 0.0122239 0
-0.529116 -0.00114336 0
-0.520689 -0.00532475 0
0.506279 0.00500366 0
0.264046 0.0300935 0
-0.0810103 0.0189824 0
-0.539019 0.00534828 0
-0.46429 0.00722311 0
0.398472 -0.0231139 0
-0.408895 -0.00617491 0
-0.5152 0.00391627 0
0.315371 -0.00424063 0
0.532788 -0.000527018 0
-0.47288 -0.00914817 0
-0.521029 0.0039736 0
-0.302051 -0.0185508 0
0.260067 0.00839162 0
0.465314 0.00494231 0
-0.4922 0.00869851 0
0.520985 -0.00156265 0
0.536623 0.00296445 0
0.307692 0.0157804 0
0.320902 0.0052094 0
-0.490081 0.00614128 0
0.503485 -0.00427288 0
-0.232454 -0.0125882 0
-0.474191 0.0101161 0
0.504145 -0.000846079 0
-0.459621 0.00985459 0
0.446485 0.0111709 0
0.193401 0.0298382 0
0.278867 -0.000119075 0
0.536305 0.000697603 0
-0.489899 0.00591799 0
0.0976569 -0.0111162 0
0.0486071 -0.0185192 0
-0.34969 0.00400966 0
-0.514338 0.000985894 0
-0.506643 0.00338185 0
-0.502948 -0.00219161 0
0.516382 -0.0018188 0
0.512519 -0.00152161 0
0.527905 -0.00171729 0
-0.518894 -0.00408595 0
0.338682 0.00352049 0
0.0277122 0.015783 0
-0.542069 0.0061132 0
-0.527124 0.00256301 0
0.501534 -0.000997721 0
-0.503813 0.00348996 0
0.498259 0.00794343 0
-0.51103 -0.00227106 0
-0.495789 -0.000585151 0
-0.230104 -0.0300697 0
-0.519209 0.00278815 0
0.489763 -0.00330816 0
-0.441561 0.0134459 0
-0.497339 -0.00456917 0
-0.197792 0.025282 0
-0.517616 0.00383675 0
-0.525913 0.00451945 0
0.44169 -0.00447056 0
-0.185045 0.00834072 0
0.515679 -0.00170822 0
0.527012 -0.00425329 0
0.336113 0.0175002 0
0.5355 0.00380074 0
0.508083 0.00751211 0
0.533466 0.00497132 0
-0.356398 0.029696 0
-0.486291 0.00226204 0
-0.540786 0.000797647 0
0.546997 0.000691662 0
-0.0736861 0.0090998 0
0.513995 -0.00277506 0
0.501528 0.00375215 0
0.52932 -0.00145878 0
0.090372 0.0153154 0
-0.27338 0.0318875 0
0.445819 0.00647518 0
-0.0630462 8.64336e-05 0
-0.254407 0.0116435 0
-0.425546 0.0144903 0
0.515372 0.00807473 0
-0.376873 0.0183476 0
0.477269 -0.00740307 0
0.393241 -0.00659617 0
-0.538879 0.0077167 0
0.419697 -0.019452 0
0.541289 -0.00721351 0
0.48404 -0.00437284 0
0.517102 0.00905337 0
-0.525746 0.00654611 0
-0.115788 0.0189982 0
0.527964 0.00220009 0
0.525415 -0.0017114 0
0.242469 0.0315613 0
-0.501598 -0.000954385 0
-0.49231 0.0060968 0
0.540954 0.000149245 0
-0.503366 -0.00430601 0
0.521526 0.00271092 0
0.52533 -0.00364103 0
0.251611 -0.0306977 0
0.503412 0.00406521 0
-0.516407 0.00389687 0
-0.44204 -0.00119488 0
-0.297028 -0.00368247 0
0.0412466 -0.0104394 0
0.062425 -0.0383938 0
-0.473742 0.00395807 0
0.234046 -0.0340439 0
-0.0557952 0.0520144 0
-0.533109 0.00748095 0
-0.381357 0.0171764 0
-0.520497 0.00536968 0
-0.216231 -0.0179433 0
0.524918 0.00836408 0
-0.370369 0.019346 0
-0.52671 -0.000423024 0
-86.2725 356.841 0
0.523827 -0.00726568 0
0.522536 -0.00191237 0
-0.429684 0.0178607 0
0.507882 0.00334166 0
0.481929 -0.00176819 0
-768.466 -1374.28 0
0.160059 0.0184624 0
-0.52136 0.00444401 0
-0.433861 -0.00357463 0
0.518927 0.00409571 0
5.41386 -11.1543 0
0.491226 0.00598726 0
-0.510197 -0.00808305 0
-0.326175 -5.32477e-05 0
-0.518135 -0.00456752 0
-0.528322 0.0083392 0
0.514997 -0.00176382 0
-0.536784 -0.00220901 0
-0.465478 0.0114461 0
0.404286 0.0157738 0
-0.505812 -0.000275842 0
-0.421802 0.0178791 0
-0.467782 0.0102113 0
0.520438 0.00499081 0
0.469224 -0.0094381 0
-0.311805 0.0241844 0
0.5349 -0.00314006 0
-0.521566 -0.00761059 0
-0.48557 -0.00505343 0
-0.527238 0.00129665 0
0.0452177 -0.0406757 0
-0.50756 -0.00721474 0
0.51307 0.00502386 0
-0.517527 0.00439732 0
-0.514579 0.00223441 0
-0.127302 0.019128 0
0.336148 0.0172586 0
-0.16885 0.0466845 0
0.110399 0.0262451 0
-0.522072 0.00471161 0
-0.0948813 0.00428828 0
-0.522968 -0.00157162 0
-0.525729 0.00675339 0
0.501572 -0.0079718 0
0.442072 0.0117468 0
-0.492047 0.00792425 0
0.465966 0.00583834 0
0.463084 0.00133602 0
-0.50173 0.00360827 0
-0.27736 -0.00950271 0
0.366423 -0.0226403 0
-0.502203 0.000762364 0
0.443701 -0.0118968 0
0.202873 -0.00658418 0
-0.516453 -0.00161152 0
0.481969 -0.00120194 0
0.507027 -0.00341008 0
0.514721 -0.00651538 0
0.52444 -0.00243109 0
0.533423 -0.000378759 0
0.505322 0.00844787 0
-0.519658 0.00325049 0
0.373151 0.0120976 0
-0.429646 -0.00683836 0
0.245129 0.0341454 0
-0.489291 0.00319522 0
-0.175236 -0.00756419 0
-0.406057 0.0148259 0
0.147654 -0.018458 0
-0.530494 0.00472198 0
0.506139 -0.00179248 0
-0.143478 0.0378311 0
0.181165 0.0197235 0
-0.537644 0.00404621 0
0.509735 0.00200567 0
0.525561 -0.00128981 0
0.502232 0.0107385 0
0.536663 -0.00643855 0
-0.51261 0.00388203 0
-0.528821 0.0029338 0
0.521818 -0.00236185 0
-0.365159 0.0209803 0
[...]
      <PointData Scalars="T">
        <DataArray type="Float32" Name="T" format="ascii" NumberOfComponents="1">
319.288
475.924
317.902
317.902
475.924
475.924
317.902
490.867
317.902
475.924
317.902
319.288
475.924
490.867
475.924
319.288
490.867
315.55
309.251
475.924
475.924
319.288
475.924
317.902
317.902
319.288
490.867
317.902
475.924
475.924
475.924
490.867
322.1
317.902
319.288
317.902
310.095
475.924
490.867
490.867
319.288
319.288
490.867
331.272
303.954
475.924
319.288
317.902
317.902
317.902
319.288
490.867
475.924
319.288
475.924
475.924
317.902
319.288
319.288
317.902
319.288
319.288
317.902
317.902
475.924
1121.47
317.902
317.902
319.288
309.298
475.924
319.288
304.679
319.288
319.288
490.867
319.288
475.924
319.288
994.318
490.867
475.924
319.288
979.065
317.902
475.924
317.902
490.867
475.924
490.867
319.288
490.867
317.902
475.924
490.867
475.924
319.288
475.924
475.924
490.867
490.867
490.867
317.902
490.867
317.902
319.288
319.288
319.288
319.288
490.867
475.924
475.924
475.924
319.288
319.288
475.924
475.924
319.288
1005.35
490.867
317.902
490.867
317.902
475.924
317.902
317.902
319.288
319.288
490.867
317.902
317.902
317.902
1192.16
475.924
317.902
317.902
317.902
475.924
317.902
317.902
317.902
319.288
317.902
490.867
475.924
317.902
475.924
475.924
490.867
475.924
319.288
319.288
490.867
317.902
319.288
319.288
317.902
475.924
490.867
317.902
317.902
490.867
475.924
475.924
475.924
317.902
317.902
319.288
319.288
1009.27
317.902
475.924
490.867
319.288
490.867
475.924
475.924
490.867
490.867
490.867
317.902
475.924
475.924
319.288
317.902
317.902
317.902
340.975
317.902
319.288
317.902
317.902
490.867
319.288
475.924
339.17
475.924
475.924
475.924
319.288
475.924
319.288
317.902
490.867
317.902
490.867
319.288
317.902
475.924
490.867
329.079
490.867
317.902
475.924
490.867
475.924
475.924
317.902
490.867
475.924
475.924
475.924
490.867
317.902
319.288
475.924
304.679
317.902
475.924
490.867
490.867
319.288
319.288
475.924
475.924
475.924
317.902
490.867
475.924
317.902
317.902
490.867
475.924
490.867
319.288
319.288
475.924
317.902
319.288
319.288
319.288
475.924
317.902
490.867
475.924
317.902
475.924
319.288
319.288
317.902
309.298
475.924
317.902
317.902
475.924
995.008
475.924
490.867
317.902
317.902
317.902
490.867
319.288
319.288
475.924
475.924
317.902
475.924
319.288
490.867
490.867
490.867
475.924
317.902
475.924
490.867
475.924
475.924
475.924
317.902
475.924
317.902
317.902
319.288
319.288
319.288
319.288
475.924
475.924
1040.68
309.298
475.924
317.902
319.288
317.902
319.288
475.924
319.288
976.509
475.924
475.924
319.288
475.924
317.902
317.902
475.924
317.902
317.902
317.902
319.288
475.924
475.924
319.288
317.902
319.288
490.867
475.924
336.087
490.867
319.288
317.902
317.902
319.288
475.924
490.867
490.867
317.902
317.902
475.924
317.902
475.924
475.924
475.924
475.924
490.867
319.288
475.924
490.867
475.924
317.902
317.902
475.924
319.288
317.902
490.867
319.288
475.924
490.867
319.288
317.902
319.288
490.867
490.867
490.867
475.924
317.902
490.867
475.924
319.288
490.867
475.924
475.924
319.288
317.902
475.924
317.902
490.867
490.867
1120.97
317.902
490.867
319.288
475.924
475.924
475.924
319.288
475.924
319.288
475.924
475.924
490.867
475.924
317.902
319.288
475.924
319.288
309.482
475.924
490.867
317.902
997.01
317.902
317.902
490.867
317.902
317.902
317.902
317.902
317.902
319.288
475.924
319.288
490.867
319.288
475.924
490.867
475.924
317.902
475.924
317.902
475.924
319.288
475.924
319.288
317.902
319.288
317.902
475.924
475.924
317.902
475.924
319.288
475.924
319.288
1158.19
490.867
475.924
475.924
319.288
312.707
475.924
317.902
932.094
490.867
490.867
475.924
490.867
319.288
317.902
490.867
319.288
490.867
490.867
317.902
317.902
490.867
475.924
992.64
490.867
315.981
490.867
317.902
475.924
490.867
317.902
319.288
490.867
490.867
475.924
475.924
319.288
1012.49
317.902
317.902
319.288
475.924
475.924
475.924
317.902
319.288
490.867
490.867
490.867
475.924
310.74
319.288
317.902
307.403
475.924
319.288
319.288
304.559
475.924
319.288
317.902
490.867
317.902
475.924
475.924
475.924
490.867
490.867
490.867
490.867
490.867
317.902
317.902
317.902
319.288
317.902
319.288
319.288
490.867
319.288
475.924
317.902
319.288
475.924
319.288
475.924
993.908
475.924
490.867
319.288
317.902
319.288
317.902
317.902
317.902
475.924
319.288
319.288
936.075
319.288
949.382
475.924
490.867
317.902
317.902
475.924
475.924
490.867
490.867
490.867
319.288
319.288
319.288
319.288
490.867
475.924
319.288
475.924
328.188
319.288
490.867
475.924
317.902
475.924
319.288
319.288
490.867
319.288
490.867
317.902
1063.61
475.924
309.117
317.902
490.867
490.867
1067.15
475.924
475.924
319.288
317.902
317.902
312.521
319.288
490.867
490.867
490.867
490.867
475.924
319.288
317.902
475.924
319.288
490.867
304.397
319.288
317.902
475.924
319.288
490.867
1137
319.288
317.902
490.867
319.288
475.924
317.902
317.902
319.288
317.902
490.867
490.867
475.924
1167.8
319.288
490.867
317.902
490.867
490.867
319.288
317.902
490.867
490.867
475.924
475.924
317.902
317.902
475.924
490.867
490.867
319.288
317.902
475.924
475.924
317.902
317.902
319.288
319.288
475.924
490.867
490.867
490.867
490.867
319.288
475.924
319.288
319.288
490.867
475.924
317.902
317.902
490.867
475.924
317.902
490.867
490.867
475.924
317.902
490.867
475.924
319.288
475.924
475.924
317.902
319.288
475.924
319.288
317.902
475.924
319.288
317.902
475.924
475.924
317.902
317.902
317.902
319.288
319.288
490.867
490.867
475.924
475.924
319.288
475.924
490.867
320
319.288
475.924
475.924
475.924
317.902
319.288
319.288
319.288
475.924
317.902
317.902
1058.35
475.924
319.288
317.902
319.288
319.288
319.288
475.924
319.288
319.288
317.902
475.924
319.288
475.924
317.902
319.288
317.902
319.288
317.902
475.924
319.288
475.924
319.288
475.924
475.924
475.924
317.902
490.867
319.288
475.924
317.902
319.288
490.867
317.902
1067.28
490.867
490.867
475.924
475.924
475.924
317.902
317.902
317.902
317.902
317.902
966.84
319.288
475.924
490.867
317.902
317.902
475.924
315.981
475.924
319.288
475.924
475.924
475.924
490.867
490.867
319.346
475.924
319.288
475.924
490.867
475.924
490.867
490.867
317.902
319.288
317.902
475.924
490.867
475.924
475.924
490.867
475.924
490.867
319.288
475.924
490.867
317.902
317.902
317.902
475.924
475.924
490.867
319.288
490.867
309.883
475.924
490.867
490.867
319.288
317.902
319.288
337.324
317.902
475.924
475.924
317.902
475.924
319.288
475.924
319.288
475.924
490.867
319.288
475.924
329.563
475.924
475.924
317.902
309.617
490.867
319.288
317.902
321.629
319.288
475.924
490.867
490.867
319.288
475.924
335.726
319.288
317.902
317.902
490.867
475.924
346.422
475.924
475.924
317.902
317.902
319.288
317.902
475.924
490.867
319.288
475.924
319.288
319.288
475.924
475.924
319.288
1168.86
317.902
317.902
475.924
475.924
317.902
319.368
475.924
490.867
490.867
319.288
325.629
490.867
475.924
475.924
981.84
490.867
317.902
475.924
317.902
475.924
317.902
317.902
1027.35
317.902
475.924
319.288
317.902
475.924
490.867
319.288
317.902
319.288
319.288
319.288
319.288
475.924
319.288
317.902
490.867
317.902
319.288
475.924
317.902
317.902
319.288
475.924
475.924
490.867
317.902
490.867
317.902
490.867
475.924
475.924
319.288
490.867
490.867
490.867
317.902
1047.68
475.924
317.902
319.288
490.867
490.867
317.902
475.924
317.902
317.902
490.867
319.288
490.867
319.288
317.902
319.288
317.902
319.288
319.288
475.924
319.288
317.902
317.902
475.924
317.902
490.867
475.924
490.867
317.902
319.288
475.924
490.867
475.924
317.902
475.924
475.924
317.902
317.902
319.288
319.288
475.924
475.924
317.902
475.924
319.288
475.924
490.867
329.563
490.867
317.902
475.924
490.867
475.924
475.924
475.924
490.867
490.867
475.924
475.924
319.288
475.924
317.902
317.902
317.902
317.902
319.288
475.924
317.902
475.924
319.288
475.924
319.288
319.288
490.867
319.288
475.924
317.902
319.288
317.902
490.867
317.902
475.924
315.102
490.867
490.867
319.288
490.867
475.924
475.924
490.867
317.902
319.288
319.288
319.288
490.867
317.902
490.867
317.902
340.073
319.288
319.288
319.288
317.902
317.902
490.867
319.288
319.288
490.867
475.924
317.902
475.924
304.559
475.924
490.867
475.924
1003.94
490.867
475.924
319.288
490.867
319.288
475.924
317.902
475.924
319.288
475.924
475.924
319.288
319.288
475.924
317.902
319.288
317.902
327.244
490.867
475.924
490.867
1178.17
317.902
475.924
317.902
475.924
475.924
317.902
317.902
475.924
319.288
317.902
317.902
317.902
475.924
317.902
319.288
475.924
475.924
475.924
490.867
475.924
317.902
475.924
317.902
490.867
319.288
317.902
319.288
475.924
490.867
490.867
475.924
317.902
319.288
490.867
317.902
307.27
490.867
490.867
317.902
475.924
315.601
317.902
319.288
490.867
475.924
475.924
475.924
319.288
1095.08
319.288
475.924
475.924
317.902
319.288
319.288
317.902
319.288
490.867
1060.1
490.867
475.924
317.902
319.288
319.288
319.288
319.288
319.288
490.867
475.924
475.924
475.924
490.867
475.924
475.924
317.902
317.902
317.902
317.902
317.902
475.924
317.902
475.924
320
490.867
475.924
319.288
475.924
1158.63
317.902
1147.65
317.902
317.902
317.902
317.902
319.288
319.288
317.902
319.288
490.867
304.559
475.924
319.288
319.288
317.902
490.867
317.902
490.867
319.288
319.288
319.288
319.288
475.924
317.902
475.924
319.288
317.902
317.902
1118.39
1115.91
1107.02
317.902
317.902
490.867
319.288
475.924
319.288
317.902
490.867
475.924
897.219
317.902
319.288
475.924
317.902
475.924
319.288
475.924
475.924
997.046
475.924
317.902
317.902
490.867
475.924
475.924
475.924
317.902
490.867
319.288
475.924
319.288
319.288
475.924
475.924
319.288
475.924
317.902
317.902
317.902
475.924
328.182
317.902
490.867
475.924
317.902
475.924
317.902
475.924
475.924
317.902
490.867
490.867
317.902
317.902
319.288
317.902
319.288
490.867
319.288
319.288
475.924
475.924
317.902
475.924
319.288
303.954
1003.94
475.924
319.288
1118.23
943.799
306.78
317.902
490.867
475.924
317.902
475.924
475.924
490.867
490.867
475.924
317.902
317.902
475.924
475.924
317.902
490.867
317.902
319.288
319.288
475.924
475.924
317.902
943.799
319.288
475.924
319.288
317.902
475.924
317.902
317.902
490.867
475.924
490.867
490.867
475.924
475.924
475.924
475.924
319.288
317.902
317.902
475.924
317.902
475.924
475.924
317.902
475.924
475.924
319.288
475.924
490.867
317.902
490.867
490.867
319.288
475.924
319.288
319.288
317.902
317.902
475.924
319.288
325.891
475.924
475.924
319.288
475.924
475.924
317.902
317.902
317.902
490.867
317.902
475.924
337.682
317.902
475.924
475.924
475.924
317.902
317.902
475.924
475.924
475.924
490.867
319.288
490.867
317.902
490.867
490.867
317.902
319.288
317.902
490.867
319.288
317.902
319.288
1018.86
317.902
1063.61
490.867
475.924
475.924
490.867
490.867
490.867
319.288
319.288
490.867
475.924
475.924
317.902
475.924
475.924
475.924
490.867
490.867
317.902
317.902
319.288
475.924
319.288
319.288
317.902
490.867
317.902
319.288
319.288
316.002
319.288
475.924
1053.69
1106.6
475.924
475.924
317.902
490.867
490.867
319.288
475.924
490.867
475.924
990.266
475.924
475.924
490.867
317.902
490.867
490.867
475.924
490.867
475.924
317.902
490.867
475.924
317.902
317.902
317.902
490.867
490.867
475.924
319.288
475.924
490.867
342.873
475.924
475.924
475.924
319.288
475.924
319.288
319.288
317.902
490.867
317.902
326.49
490.867
1080.68
317.902
319.288
490.867
475.924
475.924
317.902
475.924
490.867
475.924
319.288
319.288
317.902
319.288
490.867
475.924
475.924
317.902
319.288
475.924
319.288
319.288
490.867
490.867
490.867
319.288
319.288
319.288
475.924
319.288
1047.68
319.288
475.924
475.924
475.924
319.288
317.902
317.902
317.902
490.867
317.902
317.902
1012.49
475.924
319.288
319.288
317.902
475.924
317.902
475.924
317.902
319.288
317.902
310.369
490.867
475.924
490.867
319.288
317.902
317.902
317.902
475.924
319.288
475.924
319.288
317.902
319.288
490.867
317.902
475.924
319.288
319.288
317.902
490.867
317.902
317.902
317.902
317.902
319.288
1073.93
319.288
317.902
475.924
490.867
490.867
950.755
475.924
475.924
955.369
475.924
317.902
317.902
490.867
319.288
475.924
475.924
475.924
317.902
490.867
490.867
319.288
317.902
319.288
319.288
319.288
475.924
319.288
319.288
317.902
319.288
475.924
331.343
1030.72
490.867
490.867
317.902
490.867
475.924
475.924
475.924
475.924
475.924
1054.61
475.924
319.288
319.288
317.902
475.924
317.902
475.924
317.902
319.288
475.924
305.165
317.902
319.288
319.288
317.902
999.647
317.902
312.892
475.924
319.288
475.924
319.288
475.924
317.902
317.902
475.924
475.924
490.867
475.924
490.867
475.924
317.902
317.902
317.902
490.867
319.288
475.924
317.902
490.867
319.288
475.924
475.924
490.867
475.924
317.902
317.902
490.867
317.902
319.288
490.867
475.924
317.902
319.288
475.924
319.288
319.288
317.902
317.902
317.902
490.867
475.924
490.867
490.867
319.288
317.902
319.288
309.482
317.902
475.924
1107.74
490.867
317.902
312.284
317.902
317.902
475.924
317.902
319.288
319.288
319.288
317.902
319.288
475.924
475.924
475.924
319.288
475.924
475.924
317.902
308.143
317.902
303.928
475.924
319.288
475.924
319.288
319.288
475.924
317.902
490.867
490.867
490.867
317.902
490.867
490.867
475.924
490.867
490.867
475.924
490.867
490.867
1021.94
317.902
475.924
475.924
319.288
319.288
317.902
317.902
319.288
475.924
475.924
319.288
490.867
490.867
319.288
475.924
490.867
319.288
319.288
317.902
475.924
475.924
317.902
475.924
475.924
317.902
490.867
308.695
317.902
317.902
317.902
475.924
475.924
475.924
317.902
475.924
475.924
475.924
475.924
490.867
475.924
319.288
490.867
475.924
475.924
319.288
475.924
317.902
475.924
1024.43
319.288
475.924
490.867
317.902
317.902
490.867
490.867
1085.9
317.902
987.152
475.924
943.799
490.867
475.924
490.867
490.867
319.288
317.902
490.867
475.924
317.902
319.288
317.902
490.867
317.902
317.902
319.288
319.288
475.924
490.867
475.924
475.924
319.288
475.924
319.288
475.924
490.867
490.867
317.902
305.146
490.867
475.924
317.902
1001.17
319.288
317.902
319.288
317.902
317.902
319.288
475.924
490.867
490.867
475.924
317.902
317.902
490.867
317.902
984.861
475.924
475.924
490.867
475.924
319.288
317.902
475.924
490.867
319.288
319.288
475.924
317.902
475.924
317.902
317.902
317.902
475.924
319.288
317.902
317.902
319.288
490.867
304.836
490.867
490.867
317.902
317.902
490.867
475.924
319.288
317.902
317.902
490.867
490.867
475.924
319.288
319.288
490.867
319.288
317.902
1049.08
317.902
319.288
475.924
490.867
490.867
475.924
475.924
475.924
475.924
475.924
319.288
490.867
309.298
490.867
490.867
319.288
475.924
475.924
475.924
490.867
317.902
475.924
490.867
319.288
475.924
490.867
475.924
319.288
317.902
319.288
317.902
490.867
490.867
475.924
490.867
475.924
475.924
490.867
475.924
475.924
317.902
319.288
319.288
345.19
322.1
490.867
490.867
319.288
319.288
490.867
490.867
475.924
317.902
475.924
475.924
475.924
317.902
475.924
317.902
319.288
316.166
317.902
475.924
319.288
475.924
475.924
490.867
319.288
475.924
319.288
310.74
319.288
317.902
475.924
490.867
317.902
317.902
309.482
319.288
319.288
317.902
490.867
317.902
317.902
475.924
1105.94
475.924
317.902
317.902
317.902
475.924
475.924
475.924
319.288
475.924
319.288
932.453
319.288
317.902
317.902
317.902
475.924
319.288
490.867
319.288
317.902
319.288
475.924
490.867
490.867
475.924
490.867
490.867
319.288
475.924
490.867
317.902
317.902
319.288
475.924
475.924
490.867
490.867
319.288
475.924
490.867
490.867
319.288
475.924
1095.08
317.902
475.924
319.288
490.867
317.902
475.924
490.867
319.288
475.924
317.902
490.867
475.924
317.902
319.288
490.867
475.924
475.924
317.902
475.924
490.867
317.902
490.867
319.288
319.288
1150.42
319.288
317.902
317.902
317.902
334.462
490.867
317.902
319.288
1021.17
319.288
475.924
490.867
490.867
475.924
490.867
317.902
490.867
319.288
319.288
319.288
317.902
319.288
317.902
317.902
319.288
490.867
319.288
319.288
490.867
317.902
317.902
319.288
308.143
490.867
317.902
317.902
490.867
319.288
490.867
490.867
317.902
475.924
475.924
317.902
475.924
319.288
329.563
319.288
317.902
317.902
317.902
317.902
317.902
313.632
475.924
490.867
1132.5
319.288
317.902
475.924
317.902
317.902
490.867
317.902
319.288
317.902
317.902
317.902
475.924
319.288
317.902
475.924
317.902
490.867
319.288
317.902
319.288
475.924
490.867
319.288
475.924
475.924
317.902
317.902
317.902
475.924
319.288
304.231
475.924
475.924
317.902
317.902
319.288
490.867
490.867
490.867
317.902
319.288
317.902
490.867
475.924
317.902
317.902
319.288
319.288
317.902
475.924
319.288
490.867
319.288
475.924
475.924
319.288
319.288
475.924
932.094
319.288
490.867
475.924
991.061
995.008
475.924
475.924
490.867
317.902
317.902
490.867
319.288
490.867
319.288
317.902
490.867
317.902
317.902
475.924
317.902
897.219
930.421
475.924
475.924
319.288
319.288
317.902
490.867
317.902
490.867
317.902
317.902
475.924
490.867
475.924
317.902
325.037
319.288
317.902
490.867
317.902
475.924
317.902
475.924
317.902
475.924
475.924
319.288
317.902
490.867
317.902
475.924
319.288
475.924
490.867
490.867
490.867
317.902
475.924
490.867
997.046
490.867
490.867
317.902
475.924
317.902
317.902
319.288
317.902
319.288
317.902
475.924
490.867
972.838
319.288
319.288
475.924
317.902
317.902
317.902
317.902
475.924
475.924
319.288
319.288
317.902
317.902
1043.9
304.735
490.867
475.924
475.924
317.902
475.924
307.27
490.867
317.902
475.924
490.867
319.288
475.924
319.288
317.902
319.288
1098.28
490.867
319.288
317.902
317.902
317.902
319.288
490.867
319.288
317.902
475.924
317.902
319.288
317.902
490.867
319.288
319.288
490.867
475.924
997.046
317.902
317.902
475.924
475.924
1158.63
490.867
317.902
317.902
475.924
490.867
317.902
490.867
475.924
475.924
317.902
319.288
490.867
1054.61
490.867
317.902
490.867
490.867
319.288
319.288
319.288
319.288
475.924
490.867
490.867
490.867
319.288
317.902
319.288
317.902
475.924
475.924
475.924
475.924
490.867
475.924
475.924
331.343
319.288
317.902
317.902
490.867
490.867
475.924
475.924
475.924
317.902
941.414
319.288
319.288
317.902
490.867
490.867
317.902
319.288
317.902
490.867
319.288
475.924
475.924
317.902
317.902
317.902
317.902
319.288
319.288
319.288
319.288
317.902
317.902
475.924
317.902
475.924
319.288
475.924
475.924
475.924
317.902
317.902
1114.87
319.288
475.924
490.867
475.924
490.867
317.902
475.924
1009.27
317.902
307.539
490.867
475.924
475.924
1001.4
317.902
317.902
317.902
490.867
307.04
317.902
317.902
1107.23
490.867
317.902
319.288
319.288
319.288
317.902
319.288
490.867
317.902
303.928
319.288
475.924
475.924
475.924
475.924
475.924
317.902
490.867
1093.45
475.924
475.924
475.924
319.288
317.902
317.902
475.924
317.902
317.902
317.902
317.902
319.288
475.924
475.924
490.867
317.902
475.924
317.902
490.867
317.902
981.84
1054.05
475.924
319.288
490.867
490.867
319.288
490.867
342.008
475.924
317.902
319.288
319.288
1110.36
319.288
475.924
490.867
317.902
475.924
317.902
317.902
319.288
319.288
319.288
475.924
319.288
1053.69
490.867
315.981
490.867
490.867
1004.63
317.902
475.924
475.924
475.924
317.902
490.867
475.924
319.288
317.902
317.902
490.867
475.924
304.796
475.924
475.924
319.288
490.867
475.924
490.867
475.924
490.867
475.924
475.924
338.158
319.288
475.924
490.867
317.902
317.902
490.867
475.924
319.288
317.902
319.288
475.924
475.924
317.902
490.867
475.924
490.867
322.1
317.902
317.902
319.288
319.288
319.288
319.288
317.902
475.924
490.867
991.061
993.464
490.867
475.924
319.288
475.924
319.288
317.902
475.924
317.902
319.288
490.867
490.867
325.367
475.924
475.924
319.288
475.924
475.924
475.924
475.924
490.867
475.924
490.867
475.924
475.924
319.288
490.867
490.867
475.924
490.867
319.288
353.884
319.288
319.288
475.924
490.867
317.902
475.924
475.924
490.867
317.902
317.902
475.924
490.867
319.288
317.902
490.867
475.924
490.867
490.867
475.924
317.902
475.924
490.867
319.288
319.288
475.924
490.867
317.902
317.902
475.924
490.867
475.924
475.924
1109.38
317.902
319.288
319.288
319.288
319.288
475.924
317.902
317.902
319.288
475.924
490.867
475.924
490.867
319.288
317.902