<?xml version="1.0"?>
<VTKFile type="ImageData" version="0.1" byte_order="LittleEndian">
  <ImageData Origin="0 0 0" Spacing="1e-05 1e-05 1e-05" WholeExtent="0 191 0 191 0 0">
    <Piece Extent="0 191 0 191 0 0">
      <CellData Scalars="T">
        <DataArray type="Float32" Name="T" format="ascii" NumberOfComponents="1">
536.996
15000
15000
15000
15000
15000
15000
15000
15000
15000
15000
15000
15000
15000
15000
14999.9
14999.9
14999.9
14999.8
14999.8
14999.7
14999.6
14999.4
14999.3
14999
14998.7
14998.3
14997.8
14997.2
14996.4
14995.4
14994.1
14992.6
14990.6
14988.3
14985.3
14981.8
14977.4
14972.2
14965.9
14958.3
14949.3
14938.6
14925.9
14911
14893.6
14873.2
14849.6
14822.2
14790.8
14754.7
14713.5
14666.8
14613.8
14554.1
14487.2
14412.3
14329.1
14236.8
14134.9
14023
13900.5
13767
13622
13465.3
13296.5
13115.6
12922.3
12716.7
12499
12269.2
12027.7
11774.9
11511.5
11237.9
10955
10663.7
10364.8
10059.4
9748.71
9433.78
9115.88
8796.3
8476.33
8157.27
7840.43
7527.11
7218.55
6915.96
6620.5
6333.25
6055.21
5787.28
5530.3
5284.96
5051.89
4831.58
4624.44
4430.73
4250.66
4084.3
3931.65
3792.59
3666.95
3554.48
3454.84
3367.66
3292.51
3228.91
3176.37
3134.36
3102.32
3079.71
3065.96
3060.51
3062.8
3072.29
3088.45
3110.74
3138.67
3171.76
3209.53
3251.52
3297.32
3346.51
3398.67
3453.45
3510.45
3569.33
3629.75
3691.38
3753.88
3816.95
3880.29
3943.6
4006.59
4069
4130.54
4190.97
4250.04
4307.5
4363.13
4416.72
4468.07
4517
4563.32
4606.89
4647.58
4685.24
4719.79
4751.13
4779.2
4803.93
4825.29
4843.26
4857.83
4869.01
4876.83
4881.31
4882.5
4880.47
4875.28
4867.02
4855.76
4841.62
4824.7
4805.12
4783
4758.48
4731.7
4702.8
4671.96
4639.33
4605.09
4569.41
4532.48
4494.48
4455.55
4415.82
4375.32
4333.93
4291.21
4246.1
4196.38
4137.59
4060.91
3949.09
3768.32
3451.64
2863.3
1715.35
321.562
1265.98
15000
15000
15000
15000
15000
15000
15000
15000
15000
15000
15000
15000
15000
15000
14999.9
14999.9
14999.9
14999.8
14999.8
14999.7
14999.6
14999.4
14999.3
14999
14998.7
14998.3
14997.8
14997.2
14996.4
14995.4
14994.1
14992.6
14990.6
14988.3
14985.3
14981.8
14977.4
14972.2
14965.9
14958.3
14949.3
14938.6
14925.9
14911
14893.6
14873.2
14849.6
14822.3
14790.8
14754.8
14713.6
14666.8
14613.9
14554.2
14487.3
14412.5
14329.2
14237
14135.1
14023.2
13900.7
13767.2
13622.3
13465.6
13296.8
13115.9
12922.7
12717.1
12499.3
12269.6
12028.1
11775.4
11511.9
11238.4
10955.5
10664.1
10365.3
10059.9
9749.12
9434.16
9116.23
8796.61
8476.59
8157.48
7840.59
7527.19
7218.56
6915.89
6620.34
6332.99
6054.85
5786.81
5529.71
5284.26
5051.06
4830.63
4623.35
4429.51
4249.3
4082.8
3930
3790.81
3665.02
3552.41
3452.63
3365.31
3290.01
3226.28
3173.61
3131.46
3099.29
3076.56
3062.68
3057.11
3059.29
3068.67
3084.72
3106.91
3134.75
3167.74
3205.42
3247.33
3293.05
3342.17
3394.27
3448.98
3505.94
3564.78
3625.16
3686.74
3749.22
3812.28
3875.6
3938.91
4001.91
4064.33
4125.89
4186.34
4245.44
4302.94
4358.61
4412.25
4463.66
4512.64
4559.02
4602.66
4643.41
4681.15
4715.77
4747.18
4775.32
4800.13
4821.56
4839.6
4854.24
4865.49
4873.36
4877.9
4879.15
4877.17
4872.03
4863.81
4852.6
4838.5
4821.61
4802.06
4779.97
4755.47
4728.71
4699.83
4669
4636.39
4602.16
4566.5
4529.59
4491.6
4452.69
4412.97
4372.49
4331.12
4288.42
4243.35
4193.71
4135.08
4058.81
3948.11
3770.66
3464.82
2915.43
1921.31
369.068
1260.87
15000
15000
15000
15000
15000
15000
15000
15000
15000
15000
15000
15000
15000
15000
14999.9
14999.9
14999.9
14999.8
14999.8
14999.7
14999.6
14999.4
14999.3
14999
14998.7
14998.3
14997.8
14997.2
14996.4
14995.4
14994.1
14992.6
14990.6
14988.3
14985.3
14981.8
14977.4
14972.2
14965.9
14958.3
14949.3
14938.6
14926
14911.1
14893.7
14873.3
14849.7
14822.4
14790.9
14754.9
14713.8
14667
14614.1
14554.5
14487.5
14412.8
14329.5
14237.3
14135.5
14023.6
13901.2
13767.7
13622.8
13466.1
13297.5
13116.6
12923.4
12717.9
12500.1
12270.4
12029
11776.3
11512.8
11239.3
10956.4
10665
10366.1
10060.7
9749.93
9434.93
9116.94
8797.24
8477.12
8157.91
7840.89
7527.37
7218.58
6915.75
6620.02
6332.48
6054.13
5785.89
5528.56
5282.87
5049.42
4828.73
4621.19
4427.08
4246.59
4079.82
3926.74
3787.25
3661.19
3548.29
3448.22
3360.62
3285.05
3221.05
3168.1
3125.69
3093.27
3070.28
3056.16
3050.35
3052.3
3061.46
3077.29
3099.28
3126.92
3159.72
3197.23
3238.98
3284.55
3333.52
3385.5
3440.09
3496.94
3555.69
3615.99
3677.51
3739.94
3802.96
3866.26
3929.56
3992.57
4055
4116.6
4177.1
4236.26
4293.83
4349.59
4403.33
4454.84
4503.94
4550.45
4594.21
4635.1
4672.98
4707.74
4739.3
4767.58
4792.53
4814.11
4832.29
4847.06
4858.44
4866.44
4871.1
4872.46
4870.59
4865.54
4857.41
4846.28
4832.25
4815.44
4795.94
4773.91
4749.46
4722.74
4693.9
4663.11
4630.53
4596.33
4560.7
4523.82
4485.85
4446.97
4407.28
4366.83
4325.5
4282.85
4237.85
4188.34
4129.98
4054.28
3944.93
3770.77
3472.89
2941.31
1973.21
366.609
1265.66
15000
15000
15000
15000
15000
15000
15000
15000
15000
15000
15000
15000
15000
15000
14999.9
14999.9
14999.9
14999.8
14999.8
14999.7
14999.6
14999.4
14999.3
14999
14998.7
14998.3
14997.8
14997.2
14996.4
14995.4
14994.1
14992.6
14990.7
14988.3
14985.4
14981.8
14977.5
14972.2
14965.9
14958.4
14949.4
14938.7
14926
14911.2
14893.7
14873.4
14849.8
14822.5
14791.1
14755.1
14714
14667.3
14614.4
14554.8
14487.9
14413.2
14330
14237.8
14136.1
14024.2
13901.9
13768.4
13623.6
13467
13298.4
13117.6
12924.4
12719
12501.3
12271.6
12030.2
11777.6
11514.1
11240.6
10957.8
10666.4
10367.5
10062
9751.16
9436.07
9117.99
8798.18
8477.93
8158.56
7841.36
7527.64
7218.63
6915.56
6619.57
6331.74
6053.09
5784.52
5526.85
5280.81
5046.99
4825.92
4617.98
4423.48
4242.58
4075.39
3921.89
3781.98
3655.49
3542.17
3441.68
3353.66
3277.68
3213.26
3159.91
3117.11
3084.3
3060.93
3046.44
3040.28
3041.88
3050.71
3066.22
3087.91
3115.26
3147.79
3185.03
3226.53
3271.87
3320.63
3372.41
3426.83
3483.52
3542.13
3602.31
3663.74
3726.09
3789.05
3852.32
3915.6
3978.62
4041.08
4102.73
4163.3
4222.55
4280.23
4336.12
4389.99
4441.66
4490.93
4537.62
4581.59
4622.67
4660.76
4695.74
4727.51
4756.01
4781.17
4802.96
4821.35
4836.33
4847.9
4856.09
4860.93
4862.46
4860.74
4855.84
4847.84
4836.83
4822.92
4806.2
4786.8
4764.84
4740.46
4713.81
4685.03
4654.3
4621.76
4587.61
4552.03
4515.18
4477.26
4438.42
4398.78
4358.38
4317.1
4274.51
4229.61
4180.26
4122.18
4047.04
3938.8
3766.73
3472.2
2942.56
1956.78
364.364
1268.86
15000
15000
15000
15000
15000
15000
15000
15000
15000
15000
15000
15000
15000
15000
14999.9
14999.9
14999.9
14999.8
14999.8
14999.7
14999.6
14999.4
14999.3
14999
14998.7
14998.3
14997.8
14997.2
14996.4
14995.4
14994.2
14992.6
14990.7
14988.3
14985.4
14981.8
14977.5
14972.3
14966
14958.4
14949.4
14938.7
14926.1
14911.3
14893.9
14873.5
14850
14822.7
14791.3
14755.3
14714.3
14667.6
14614.7
14555.2
14488.4
14413.7
14330.6
14238.5
14136.8
14025.1
13902.7
13769.4
13624.7
13468.2
13299.6
13118.9
12925.8
12720.4
12502.8
12273.2
12031.9
11779.3
11515.9
11242.4
10959.5
10668.2
10369.2
10063.7
9752.78
9437.6
9119.39
8799.43
8479
8159.43
7842
7528.01
7218.71
6915.32
6618.98
6330.79
6051.74
5782.74
5524.63
5278.12
5043.82
4822.25
4613.79
4418.75
4237.32
4069.58
3915.52
3775.06
3648.01
3534.12
3433.07
3344.5
3267.96
3203.01
3149.13
3105.8
3072.47
3048.61
3033.63
3027
3028.14
3036.53
3051.62
3072.89
3099.85
3132.01
3168.9
3210.08
3255.11
3303.59
3355.11
3409.29
3465.76
3524.19
3584.21
3645.5
3707.75
3770.63
3833.85
3897.11
3960.14
4022.64
4084.35
4145.01
4204.37
4262.19
4318.24
4372.31
4424.18
4473.67
4520.61
4564.82
4606.18
4644.54
4679.8
4711.85
4740.64
4766.09
4788.16
4806.82
4822.07
4833.9
4842.34
4847.41
4849.16
4847.65
4842.94
4835.12
4824.28
4810.51
4793.93
4774.65
4752.8
4728.52
4701.96
4673.26
4642.6
4610.13
4576.05
4540.52
4503.73
4465.86
4427.08
4387.49
4347.16
4305.95
4263.45
4218.66
4169.48
4111.67
4037
3929.57
3758.81
3466.1
2938.87
1961.9
363.974
1269.71
15000
15000
15000
15000
15000
15000
15000
15000
15000
15000
15000
15000
15000
15000
14999.9
14999.9
14999.9
14999.8
14999.8
14999.7
14999.6
14999.4
14999.3
14999
14998.7
14998.3
14997.8
14997.2
14996.4
14995.4
14994.2
14992.6
14990.7
14988.3
14985.4
14981.8
14977.5
14972.3
14966
14958.5
14949.5
14938.8
14926.2
14911.4
14894
14873.7
14850.2
14822.9
14791.6
14755.6
14714.6
14668
14615.2
14555.7
14488.9
14414.3
14331.3
14239.3
14137.7
14026.1
13903.8
13770.6
13626
13469.6
13301.1
13120.5
12927.5
12722.3
12504.8
12275.2
12034
11781.4
11518.1
11244.6
10961.8
10670.4
10371.4
10065.8
9754.8
9439.5
9121.14
8801
8480.36
8160.53
7842.81
7528.5
7218.85
6915.07
6618.31
6329.65
6050.11
5780.6
5521.94
5274.85
5039.96
4817.76
4608.67
4412.98
4230.87
4062.45
3907.71
3766.56
3638.81
3524.23
3422.5
3333.23
3256.02
3190.39
3135.85
3091.87
3057.91
3033.42
3017.84
3010.61
3011.19
3019.03
3033.58
3054.35
3080.83
3112.53
3148.98
3189.75
3234.4
3282.51
3333.7
3387.58
3443.79
3501.98
3561.8
3622.92
3685.03
3747.81
3810.97
3874.2
3937.23
3999.77
4061.55
4122.32
4181.82
4239.81
4296.06
4350.35
4402.48
4452.24
4499.47
4544
4585.68
4624.38
4659.98
4692.39
4721.53
4747.33
4769.75
4788.75
4804.33
4816.48
4825.23
4830.59
4832.62
4831.37
4826.9
4819.3
4808.67
4795.08
4778.67
4759.54
4737.83
4713.68
4687.23
4658.63
4628.06
4595.68
4561.67
4526.22
4489.5
4451.71
4412.99
4373.48
4333.22
4292.1
4249.7
4205.04
4156.03
4098.48
4024.23
3917.48
3747.9
3457.41
2935.28
1972.02
365.667
1279.5
15000
15000
15000
15000
15000
15000
15000
15000
15000
15000
15000
15000
15000
15000
14999.9
14999.9
14999.9
14999.8
14999.8
14999.7
14999.6
14999.5
14999.3
14999
14998.7
14998.3
14997.8
14997.2
14996.4
14995.4
14994.2
14992.6
14990.7
14988.3
14985.4
14981.9
14977.6
14972.3
14966.1
14958.5
14949.6
14938.9
14926.3
14911.5
14894.2
14873.9
14850.4
14823.2
14791.9
14756
14715
14668.4
14615.7
14556.3
14489.6
14415.1
14332.2
14240.2
14138.8
14027.2
13905.1
13772
13627.5
13471.2
13302.9
13122.4
12929.6
12724.4
12507
12277.6
12036.4
11783.9
11520.7
11247.2
10964.4
10673
10373.9
10068.3
9757.2
9441.77
9123.24
8802.88
8481.99
8161.87
7843.82
7529.14
7219.06
6914.82
6617.56
6328.37
6048.25
5778.13
5518.82
5271.06
5035.46
4812.54
4602.69
4406.23
4223.34
4054.12
3898.56
3756.59
3628.03
3512.62
3410.07
3319.99
3241.97
3175.54
3120.21
3075.45
3040.74
3015.51
2999.21
2991.28
2991.18
2998.35
3012.28
3032.44
3058.33
3089.48
3125.41
3165.68
3209.87
3257.55
3308.35
3361.87
3417.76
3475.65
3535.22
3596.14
3658.08
3720.73
3783.8
3846.99
3910.01
3972.59
4034.45
4095.34
4155
4213.19
4269.67
4324.22
4376.64
4426.73
4474.3
4519.19
4561.26
4600.35
4636.36
4669.19
4698.74
4724.96
4747.79
4767.2
4783.17
4795.7
4804.81
4810.52
4812.88
4811.94
4807.76
4800.43
4790.04
4776.68
4760.47
4741.53
4719.99
4695.99
4669.67
4641.2
4610.74
4578.46
4544.55
4509.18
4472.56
4434.85
4396.22
4356.8
4316.63
4275.61
4233.32
4188.8
4139.97
4082.68
4008.83
3902.74
3734.36
3446.16
2928.17
1970.01
367.136
1267.89
15000
15000
15000
15000
15000
15000
15000
15000
15000
15000
15000
15000
15000
15000
14999.9
14999.9
14999.9
14999.8
14999.8
14999.7
14999.6
14999.5
14999.3
14999
14998.7
14998.3
14997.9
14997.2
14996.4
14995.4
14994.2
14992.6
14990.7
14988.3
14985.4
14981.9
14977.6
14972.4
14966.1
14958.6
14949.7
14939
14926.5
14911.7
14894.3
14874.1
14850.6
14823.5
14792.2
14756.4
14715.5
14669
14616.3
14557
14490.4
14416
14333.2
14241.3
14140
14028.6
13906.6
13773.6
13629.3
13473.1
13305
13124.6
12931.9
12726.9
12509.6
12280.3
12039.2
11786.8
11523.6
11250.2
10967.4
10676
10376.9
10071.2
9759.99
9444.4
9125.68
8805.08
8483.91
8163.46
7845.03
7529.92
7219.38
6914.61
6616.79
6326.98
6046.21
5775.39
5515.35
5266.82
5030.41
4806.65
4595.95
4398.6
4214.81
4044.67
3888.19
3745.27
3615.77
3499.42
3395.92
3304.9
3225.95
3158.6
3102.36
3056.72
3021.12
2995.04
2977.9
2969.16
2968.27
2974.69
2987.88
3007.33
3032.55
3063.05
3098.37
3138.06
3181.71
3228.89
3279.22
3332.32
3387.82
3445.38
3504.65
3565.32
3627.05
3689.55
3752.51
3815.64
3878.65
3941.26
4003.2
4064.22
4124.05
4182.45
4239.19
4294.04
4346.79
4397.24
4445.2
4490.51
4533.01
4572.55
4609.03
4642.33
4672.36
4699.05
4722.36
4742.23
4758.66
4771.63
4781.16
4787.28
4790.02
4789.43
4785.59
4778.57
4768.46
4755.37
4739.4
4720.68
4699.33
4675.5
4649.35
4621.02
4590.69
4558.54
4524.74
4489.49
4452.97
4415.36
4376.83
4337.51
4297.45
4256.55
4214.39
4170.02
4121.38
4064.36
3990.91
3885.51
3718.39
3432.74
2920.77
1980.41
369.033
1253.86
15000
15000
15000
15000
15000
15000
15000
15000
15000
15000
15000
15000
15000
15000
14999.9
14999.9
14999.9
14999.8
14999.8
14999.7
14999.6
14999.5
14999.3
14999
14998.7
14998.3
14997.9
14997.2
14996.4
14995.4
14994.2
14992.6
14990.7
14988.4
14985.5
14981.9
14977.6
14972.4
14966.2
14958.7
14949.8
14939.1
14926.6
14911.8
14894.5
14874.4
14850.9
14823.8
14792.6
14756.8
14716
14669.6
14617
14557.8
14491.3
14417
14334.3
14242.6
14141.4
14030.1
13908.3
13775.5
13631.2
13475.3
13307.3
13127
12934.5
12729.6
12512.5
12283.3
12042.4
11790.1
11526.9
11253.6
10970.8
10679.4
10380.3
10074.5
9763.15
9447.4
9128.46
8807.6
8486.12
8165.3
7846.46
7530.88
7219.81
6914.48
6616.02
6325.54
6044.04
5772.44
5511.58
5262.19
5024.89
4800.2
4588.53
4390.2
4205.4
4034.23
3876.71
3732.74
3602.17
3484.76
3380.21
3288.13
3208.13
3139.75
3082.48
3035.83
2999.25
2972.19
2954.11
2944.45
2942.67
2948.22
2960.57
2979.22
3003.67
3033.43
3068.06
3107.09
3150.11
3196.72
3246.51
3299.12
3354.18
3411.34
3470.27
3530.64
3592.14
3654.44
3717.27
3780.31
3843.3
3905.94
3967.96
4029.11
4089.12
4147.75
4204.77
4259.94
4313.05
4363.9
4412.29
4458.06
4501.04
4541.09
4578.09
4611.91
4642.48
4669.71
4693.54
4713.94
4730.87
4744.34
4754.35
4760.92
4764.09
4763.91
4760.45
4753.79
4744.01
4731.21
4715.52
4697.05
4675.93
4652.31
4626.34
4598.18
4568.01
4536
4502.33
4467.21
4430.81
4393.32
4354.91
4315.71
4275.77
4235
4192.99
4148.78
4100.35
4043.6
3970.58
3865.89
3700
3416.56
2908.13
1968.12
368.91
1246.08
15000
15000
15000
15000
15000
15000
15000
15000
15000
15000
15000
15000
15000
15000
14999.9
14999.9
14999.9
14999.8
14999.8
14999.7
14999.6
14999.5
14999.3
14999
14998.7
14998.4
14997.9
14997.2
14996.4
14995.5
14994.2
14992.7
14990.8
14988.4
14985.5
14982
14977.7
14972.5
14966.3
14958.8
14949.9
14939.3
14926.8
14912
14894.8
14874.6
14851.2
14824.2
14793
14757.3
14716.6
14670.2
14617.8
14558.6
14492.3
14418.1
14335.5
14243.9
14142.9
14031.7
13910.1
13777.4
13633.4
13477.6
13309.8
13129.7
12937.4
12732.7
12515.7
12286.7
12045.9
11793.7
11530.6
11257.4
10974.6
10683.2
10384
10078.2
9766.68
9450.75
9131.58
8810.45
8488.63
8167.42
7848.13
7532.04
7220.41
6914.44
6615.3
6324.08
6041.79
5769.35
5507.59
5257.26
5018.98
4793.27
4580.55
4381.14
4195.23
4022.93
3864.26
3719.14
3587.4
3468.82
3363.09
3269.86
3188.69
3119.16
3060.76
3012.99
2975.31
2947.18
2928.05
2917.36
2914.58
2919.16
2930.58
2948.33
2971.92
3000.86
3034.7
3072.99
3115.31
3161.26
3210.45
3262.5
3317.06
3373.77
3432.3
3492.33
3553.54
3615.62
3678.28
3741.22
3804.16
3866.81
3928.91
3990.19
4050.39
4109.26
4166.57
4222.08
4275.58
4326.85
4375.71
4421.98
4465.49
4506.09
4543.65
4578.05
4609.2
4637.02
4661.44
4682.41
4699.91
4713.93
4724.46
4731.54
4735.19
4735.47
4732.44
4726.17
4716.76
4704.3
4688.91
4670.72
4649.86
4626.48
4600.72
4572.76
4542.77
4510.92
4477.41
4442.43
4406.17
4368.81
4330.54
4291.48
4251.68
4211.05
4169.2
4125.17
4076.96
4020.52
3947.93
3843.93
3679.17
3397.41
2890.8
1952.76
367.494
1240.87
15000
15000
15000
15000
15000
15000
15000
15000
15000
15000
15000
15000
15000
15000
14999.9
14999.9
14999.9
14999.8
14999.8
14999.7
14999.6
14999.5
14999.3
14999
14998.7
14998.4
14997.9
14997.2
14996.5
14995.5
14994.2
14992.7
14990.8
14988.4
14985.5
14982
14977.7
14972.6
14966.4
14958.9
14950
14939.4
14926.9
14912.2
14895
14874.9
14851.6
14824.6
14793.5
14757.9
14717.2
14670.9
14618.6
14559.5
14493.3
14419.2
14336.8
14245.4
14144.5
14033.5
13912.1
13779.6
13635.7
13480.1
13312.5
13132.7
12940.5
12736
12519.2
12290.3
12049.7
11797.6
11534.6
11261.5
10978.7
10687.3
10388.1
10082.2
9770.56
9454.45
9135.05
8813.62
8491.44
8169.82
7850.05
7533.42
7221.18
6914.55
6614.68
6322.66
6039.52
5766.17
5503.46
5252.12
5012.78
4785.98
4572.12
4371.53
4184.42
4010.91
3850.99
3704.61
3571.61
3451.76
3344.76
3250.25
3167.83
3097.04
3037.4
2988.41
2949.52
2920.21
2899.92
2888.11
2884.23
2887.75
2898.15
2914.9
2937.53
2965.56
2998.53
3036
3077.54
3122.76
3171.28
3222.7
3276.69
3332.89
3390.97
3450.61
3511.49
3573.31
3635.76
3698.57
3761.44
3824.09
3886.24
3947.65
4008.03
4067.15
4124.77
4180.63
4234.54
4286.27
4335.62
4382.42
4426.49
4467.68
4505.85
4540.87
4572.66
4601.11
4626.16
4647.76
4665.88
4680.49
4691.61
4699.24
4703.42
4704.19
4701.63
4695.8
4686.79
4674.71
4659.68
4641.8
4621.23
4598.11
4572.59
4544.85
4515.06
4483.4
4450.06
4415.24
4379.14
4341.94
4303.82
4264.91
4225.27
4184.8
4143.12
4099.29
4051.32
3995.19
3923.06
3819.76
3656.14
3376.18
2872
1933.23
366.16
1253.16
15000
15000
15000
15000
15000
15000
15000
15000
15000
15000
15000
15000
15000
15000
14999.9
14999.9
14999.9
14999.8
14999.8
14999.7
14999.6
14999.5
14999.3
14999
14998.7
14998.4
14997.9
14997.3
14996.5
14995.5
14994.2
14992.7
14990.8
14988.5
14985.6
14982.1
14977.8
14972.6
14966.4
14959
14950.1
14939.6
14927.1
14912.5
14895.3
14875.2
14851.9
14825
14794
14758.4
14717.8
14671.7
14619.4
14560.5
14494.4
14420.5
14338.2
14247
14146.2
14035.5
13914.2
13781.9
13638.3
13482.9
13315.5
13135.8
12943.9
12739.5
12522.9
12294.2
12053.7
11801.8
11539
11265.9
10983.2
10691.8
10392.6
10086.5
9774.79
9458.49
9138.85
8817.11
8494.57
8172.52
7852.25
7535.05
7222.17
6914.83
6614.19
6321.34
6037.3
5762.99
5499.26
5246.85
5006.39
4778.41
4563.35
4361.51
4173.12
3998.3
3837.06
3689.33
3554.98
3433.76
3325.39
3229.51
3145.73
3073.59
3012.61
2962.3
2922.11
2891.52
2869.99
2856.95
2851.88
2854.24
2863.51
2879.19
2900.78
2927.8
2959.82
2996.38
3037.07
3081.49
3129.25
3179.98
3233.33
3288.96
3346.53
3405.73
3466.23
3527.74
3589.96
3652.6
3715.37
3777.99
3840.2
3901.71
3962.28
4021.64
4079.56
4135.79
4190.12
4242.32
4292.19
4339.54
4384.21
4426.02
4464.83
4500.52
4532.97
4562.1
4587.83
4610.11
4628.88
4644.14
4655.88
4664.11
4668.87
4670.19
4668.14
4662.79
4654.23
4642.56
4627.9
4610.38
4590.12
4567.29
4542.05
4514.55
4484.98
4453.53
4420.4
4385.76
4349.84
4312.81
4274.86
4236.12
4196.64
4156.35
4114.87
4071.25
4023.53
3967.73
3896.07
3793.52
3631.19
3353.8
2855.99
1939.34
365.791
1294.15
15000
15000
15000
15000
15000
15000
15000
15000
15000
15000
15000
15000
15000
15000
14999.9
14999.9
14999.9
14999.8
14999.8
14999.7
14999.6
14999.5
14999.3
14999
14998.8
14998.4
14997.9
14997.3
14996.5
14995.5
14994.3
14992.7
14990.8
14988.5
14985.6
14982.1
14977.9
14972.7
14966.5
14959.1
14950.3
14939.8
14927.3
14912.7
14895.6
14875.6
14852.3
14825.5
14794.5
14759.1
14718.5
14672.5
14620.4
14561.6
14495.6
14421.8
14339.7
14248.6
14148.1
14037.5
13916.4
13784.4
13640.9
13485.8
13318.6
13139.2
12947.4
12743.3
12526.9
12298.4
12058.1
11806.3
11543.6
11270.6
10988
10696.6
10397.3
10091.2
9779.36
9462.88
9142.99
8820.94
8498.02
8175.52
7854.73
7536.94
7223.4
6915.33
6613.89
6320.17
6035.18
5759.87
5495.07
5241.53
4999.89
4770.69
4554.35
4351.2
4161.46
3985.25
3822.61
3673.46
3537.66
3414.99
3305.17
3207.84
3122.6
3049.02
2986.62
2934.89
2893.31
2861.36
2838.47
2824.12
2817.77
2818.88
2826.95
2841.45
2861.91
2887.85
2918.83
2954.41
2994.16
3037.7
3084.64
3134.61
3187.26
3242.26
3299.26
3357.96
3418.04
3479.19
3541.13
3603.56
3666.2
3728.77
3790.99
3852.6
3913.34
3972.94
4031.16
4087.76
4142.51
4195.19
4245.59
4293.53
4338.81
4381.26
4420.75
4457.14
4490.3
4520.15
4546.6
4569.58
4589.06
4605.01
4617.42
4626.29
4631.66
4633.56
4632.06
4627.23
4619.16
4607.94
4593.7
4576.55
4556.65
4534.15
4509.2
4481.97
4452.66
4421.44
4388.52
4354.09
4318.37
4281.53
4243.76
4205.21
4165.92
4125.83
4084.54
4041.16
3993.71
3938.25
3867.09
3765.3
3604.22
3328.92
2834.09
1916.66
362.153
1336.38
15000
15000
15000
15000
15000
15000
15000
15000
15000
15000
15000
15000
15000
15000
14999.9
14999.9
14999.9
14999.8
14999.8
14999.7
14999.6
14999.5
14999.3
14999.1
14998.8
14998.4
14997.9
14997.3
14996.5
14995.5
14994.3
14992.8
14990.9
14988.5
14985.7
14982.2
14977.9
14972.8
14966.6
14959.2
14950.4
14939.9
14927.5
14912.9
14895.9
14875.9
14852.7
14825.9
14795.1
14759.7
14719.3
14673.3
14621.3
14562.7
14496.8
14423.2
14341.3
14250.4
14150
14039.7
13918.8
13787
13643.8
13488.8
13321.9
13142.7
12951.2
12747.3
12531.2
12302.9
12062.7
11811.1
11548.5
11275.6
10993.1
10701.7
10402.4
10096.3
9784.27
9467.6
9147.46
8825.1
8501.8
8178.84
7857.52
7539.13
7224.91
6916.09
6613.81
6319.19
6033.23
5756.88
5490.97
5236.26
4993.39
4762.91
4545.24
4340.72
4149.56
3971.91
3807.8
3657.15
3519.84
3395.65
3284.29
3185.43
3098.67
3023.56
2959.65
2906.42
2863.37
2829.95
2805.64
2789.89
2782.17
2781.95
2788.72
2801.97
2821.21
2845.99
2875.85
2910.36
2949.11
2991.69
3037.74
3086.88
3138.77
3193.06
3249.44
3307.58
3367.18
3427.93
3489.54
3551.73
3614.2
3676.68
3738.89
3800.57
3861.45
3921.27
3979.79
4036.75
4091.93
4145.1
4196.04
4244.57
4290.48
4333.6
4373.79
4410.9
4444.81
4475.4
4502.6
4526.34
4546.56
4563.23
4576.34
4585.9
4591.92
4594.45
4593.54
4589.26
4581.71
4570.97
4557.18
4540.45
4520.94
4498.78
4474.15
4447.23
4418.19
4387.23
4354.55
4320.35
4284.84
4248.21
4210.65
4172.3
4133.22
4093.33
4052.27
4009.12
3961.96
3906.87
3836.2
3735.15
3575.21
3301.64
2809.26
1895.21
358.62
1367.32
15000
15000
15000
15000
15000
15000
15000
15000
15000
15000
15000
15000
15000
15000
14999.9
14999.9
14999.9
14999.8
14999.8
14999.7
14999.6
14999.5
14999.3
14999.1
14998.8
14998.4
14997.9
14997.3
14996.5
14995.5
14994.3
14992.8
14990.9
14988.6
14985.7
14982.2
14978
14972.9
14966.7
14959.4
14950.6
14940.1
14927.8
14913.2
14896.2
14876.3
14853.2
14826.4
14795.7
14760.4
14720.1
14674.2
14622.3
14563.8
14498.1
14424.7
14342.9
14252.2
14152.1
14041.9
13921.3
13789.7
13646.7
13492
13325.3
13146.4
12955.2
12751.5
12535.6
12307.5
12067.6
11816.1
11553.7
11280.9
10998.5
10707.1
10407.9
10101.6
9789.51
9472.66
9152.27
8829.6
8505.91
8182.49
7860.64
7541.63
7226.72
6917.13
6614.01
6318.46
6031.5
5754.08
5487.03
5231.12
4986.98
4755.18
4536.13
4330.19
4137.57
3958.43
3792.78
3640.58
3501.69
3375.91
3262.96
3162.49
3074.12
2997.42
2931.92
2877.12
2832.51
2797.56
2771.74
2754.51
2745.35
2743.71
2749.1
2761.02
2778.98
2802.51
2831.18
2864.55
2902.21
2943.76
2988.84
3037.08
3088.14
3141.67
3197.36
3254.88
3313.94
3374.24
3435.48
3497.37
3559.63
3621.98
3684.16
3745.88
3806.88
3866.9
3925.7
3983.01
4038.61
4092.26
4143.75
4192.86
4239.42
4283.23
4324.13
4361.98
4396.65
4428.02
4456
4480.52
4501.51
4518.94
4532.79
4543.06
4549.78
4552.96
4552.68
4549
4542
4531.78
4518.47
4502.19
4483.09
4461.31
4437.04
4410.44
4381.7
4351.03
4318.61
4284.66
4249.39
4212.99
4175.65
4137.52
4098.66
4058.99
4018.16
3975.27
3928.4
3873.68
3803.52
3703.19
3544.31
3272.23
2781.91
1873.28
355.482
1373.3
15000
15000
15000
15000
15000
15000
15000
15000
15000
15000
15000
15000
15000
15000
14999.9
14999.9
14999.9
14999.8
14999.8
14999.7
14999.6
14999.5
14999.3
14999.1
14998.8
14998.4
14997.9
14997.3
14996.5
14995.5
14994.3
14992.8
14990.9
14988.6
14985.8
14982.3
14978.1
14973
14966.8
14959.5
14950.7
14940.3
14928
14913.5
14896.5
14876.7
14853.6
14827
14796.3
14761.1
14720.9
14675.2
14623.4
14565
14499.5
14426.2
14344.6
14254.1
14154.2
14044.3
13923.9
13792.5
13649.8
13495.4
13329
13150.3
12959.3
12755.9
12540.3
12312.4
12072.7
11821.4
11559.2
11286.5
11004.1
10712.9
10413.6
10107.3
9795.07
9478.04
9157.42
8834.43
8510.36
8186.48
7864.09
7544.46
7228.86
6918.48
6614.5
6318.02
6030.04
5751.53
5483.32
5226.18
4980.75
4747.59
4527.14
4319.73
4125.61
3944.92
3777.7
3623.89
3483.38
3355.95
3241.34
3139.21
3049.18
2970.82
2903.66
2847.22
2800.99
2764.44
2737.04
2718.25
2707.56
2704.44
2708.38
2718.89
2735.48
2757.7
2785.1
2817.25
2853.75
2894.21
2938.25
2985.53
3035.68
3088.38
3143.31
3200.17
3258.63
3318.41
3379.22
3440.77
3502.78
3564.97
3627.06
3688.79
3749.88
3810.08
3869.13
3926.77
3982.78
4036.9
4088.93
4138.64
4185.84
4230.34
4271.97
4310.58
4346.02
4378.19
4406.97
4432.29
4454.08
4472.3
4486.92
4497.94
4505.38
4509.26
4509.63
4506.57
4500.16
4490.5
4477.7
4461.9
4443.24
4421.88
4397.98
4371.73
4343.32
4312.95
4280.82
4247.14
4212.13
4175.98
4138.88
4100.98
4062.36
4022.93
3982.35
3939.73
3893.17
3838.82
3769.16
3669.56
3511.8
3241.44
2753.38
1843.86
353.248
1375.82
15000
15000
15000
15000
15000
15000
15000
15000
15000
15000
15000
15000
15000
15000
14999.9
14999.9
14999.9
14999.8
14999.8
14999.7
14999.6
14999.5
14999.3
14999.1
14998.8
14998.4
14997.9
14997.3
14996.5
14995.6
14994.3
14992.8
14991
14988.6
14985.8
14982.4
14978.2
14973.1
14967
14959.6
14950.9
14940.5
14928.2
14913.8
14896.8
14877.1
14854.1
14827.5
14796.9
14761.8
14721.7
14676.1
14624.5
14566.3
14500.9
14427.8
14346.4
14256.1
14156.4
14046.7
13926.6
13795.5
13653
13498.9
13332.7
13154.4
12963.6
12760.5
12545.1
12317.5
12078
11827
11564.9
11292.4
11010.1
10718.9
10419.6
10113.3
9800.95
9483.76
9162.9
8839.61
8515.15
8190.82
7867.89
7547.65
7231.34
6920.19
6615.34
6317.91
6028.91
5749.29
5479.91
5221.52
4974.78
4740.24
4518.35
4309.46
4113.81
3931.54
3762.7
3607.25
3465.06
3335.95
3219.63
3115.79
3024.04
2943.96
2875.1
2816.96
2769.04
2730.82
2701.77
2681.37
2669.09
2664.41
2666.84
2675.86
2691.02
2711.85
2737.91
2768.78
2804.05
2843.34
2886.28
2932.51
2981.7
3033.51
3087.63
3143.74
3201.55
3260.76
3321.09
3382.24
3443.95
3505.92
3567.89
3629.58
3690.73
3751.07
3810.35
3868.3
3924.69
3979.27
4031.82
4082.12
4129.96
4175.14
4217.51
4256.88
4293.11
4326.08
4355.69
4381.83
4404.44
4423.47
4438.89
4450.68
4458.87
4463.47
4464.53
4462.13
4456.33
4447.25
4435
4419.7
4401.52
4380.59
4357.1
4331.23
4303.18
4273.13
4241.31
4207.93
4173.19
4137.3
4100.46
4062.82
4024.45
3985.27
3944.95
3902.61
3856.37
3802.41
3733.27
3634.43
3477.87
3209.64
2726.16
1828.98
351.063
1383.2
15000
15000
15000
15000
15000
15000
15000
15000
15000
15000
15000
15000
15000
15000
14999.9
14999.9
14999.9
14999.8
14999.8
14999.7
14999.6
14999.5
14999.3
14999.1
14998.8
14998.4
14997.9
14997.3
14996.5
14995.6
14994.4
14992.9
14991
14988.7
14985.9
14982.4
14978.2
14973.2
14967.1
14959.8
14951.1
14940.7
14928.5
14914.1
14897.2
14877.5
14854.6
14828.1
14797.6
14762.6
14722.6
14677.2
14625.7
14567.6
14502.4
14429.5
14348.3
14258.2
14158.7
14049.3
13929.4
13798.6
13656.4
13502.5
13336.7
13158.6
12968.1
12765.3
12550.1
12322.8
12083.5
11832.7
11570.8
11298.5
11016.3
10725.2
10425.9
10119.6
9807.13
9489.79
9168.71
8845.12
8520.3
8195.51
7872.05
7551.2
7234.19
6922.26
6616.55
6318.17
6028.14
5747.42
5476.85
5217.2
4969.13
4733.2
4509.86
4299.47
4102.26
3918.39
3747.91
3590.78
3446.9
3316.06
3198
3092.41
2998.9
2917.06
2846.43
2786.54
2736.88
2696.94
2666.19
2644.12
2630.19
2623.89
2624.73
2632.22
2645.88
2665.25
2689.91
2719.42
2753.4
2791.46
2833.23
2878.36
2926.51
2977.36
3030.6
3085.91
3143
3201.59
3261.37
3322.08
3383.42
3445.13
3506.93
3568.54
3629.71
3690.15
3749.62
3807.85
3864.6
3919.61
3972.67
4023.53
4072
4117.87
4160.96
4201.09
4238.12
4271.91
4302.34
4329.31
4352.76
4372.62
4388.85
4401.45
4410.41
4415.75
4417.53
4415.81
4410.66
4402.19
4390.51
4375.75
4358.06
4337.6
4314.54
4289.08
4261.4
4231.7
4200.21
4167.14
4132.7
4097.1
4060.54
4023.16
3985.05
3946.14
3906.1
3864.05
3818.13
3764.58
3695.98
3597.94
3442.67
3176.62
2696.47
1801.61
349.629
1382.55
15000
15000
15000
15000
15000
15000
15000
15000
15000
15000
15000
15000
15000
15000
14999.9
14999.9
14999.9
14999.8
14999.8
14999.7
14999.6
14999.5
14999.3
14999.1
14998.8
14998.4
14997.9
14997.3
14996.6
14995.6
14994.4
14992.9
14991
14988.7
14985.9
14982.5
14978.3
14973.3
14967.2
14959.9
14951.3
14940.9
14928.7
14914.4
14897.6
14877.9
14855.1
14828.7
14798.3
14763.4
14723.5
14678.2
14626.9
14569
14504
14431.2
14350.2
14260.4
14161.1
14052
13932.3
13801.8
13659.9
13506.3
13340.7
13162.9
12972.8
12770.3
12555.4
12328.3
12089.3
11838.7
11577
11304.8
11022.8
10731.7
10432.5
10126.1
9813.63
9496.14
9174.85
8850.98
8525.79
8200.56
7876.58
7555.12
7237.43
6924.72
6618.15
6318.82
6027.77
5745.94
5474.19
5213.28
4963.89
4726.56
4501.76
4289.85
4091.07
3905.58
3733.44
3574.63
3429.02
3296.43
3176.6
3069.23
2973.92
2890.29
2817.87
2756.18
2704.74
2663.04
2630.54
2606.74
2591.11
2583.14
2582.35
2588.23
2600.33
2618.19
2641.38
2669.49
2702.11
2738.86
2779.4
2823.36
2870.42
2920.25
2972.54
3026.99
3083.31
3141.2
3200.39
3260.59
3321.52
3382.91
3444.48
3505.97
3567.1
3627.61
3687.23
3745.7
3802.77
3858.19
3911.72
3963.14
4012.21
4058.75
4102.55
4143.44
4181.26
4215.86
4247.12
4274.94
4299.23
4319.93
4337
4350.41
4360.16
4366.27
4368.79
4367.77
4363.29
4355.45
4344.37
4330.17
4313
4293.03
4270.44
4245.4
4218.11
4188.8
4157.66
4124.92
4090.79
4055.49
4019.22
3982.13
3944.3
3905.67
3865.9
3824.16
3778.58
3725.45
3657.42
3560.25
3406.46
3143.26
2669.48
1792.25
349.228
1382.15
15000
15000
15000
15000
15000
15000
15000
15000
15000
15000
15000
15000
15000
15000
14999.9
14999.9
14999.9
14999.8
14999.8
14999.7
14999.6
14999.5
14999.3
14999.1
14998.8
14998.4
14997.9
14997.3
14996.6
14995.6
14994.4
14992.9
14991.1
14988.8
14986
14982.6
14978.4
14973.4
14967.3
14960.1
14951.4
14941.2
14929
14914.7
14897.9
14878.4
14855.6
14829.3
14799
14764.2
14724.5
14679.3
14628.1
14570.4
14505.6
14433
14352.3
14262.6
14163.6
14054.7
13935.3
13805.1
13663.5
13510.2
13344.9
13167.4
12977.6
12775.4
12560.8
12334
12095.3
11844.9
11583.4
11311.4
11029.5
10738.5
10439.4
10133
9820.42
9502.8
9181.31
8857.16
8531.62
8205.97
7881.48
7559.42
7241.05
6927.58
6620.16
6319.9
6027.83
5744.9
5471.97
5209.81
4959.09
4720.37
4494.11
4280.68
4080.33
3893.22
3719.42
3558.9
3411.55
3277.2
3155.59
3046.41
2949.29
2863.83
2789.59
2726.08
2672.83
2629.32
2595.03
2569.46
2552.09
2542.41
2539.93
2544.16
2554.65
2570.95
2592.61
2619.25
2650.45
2685.86
2725.1
2767.83
2813.73
2862.48
2913.76
2967.29
3022.77
3079.91
3138.44
3198.07
3258.53
3319.54
3380.84
3442.15
3503.2
3563.72
3623.44
3682.11
3739.47
3795.25
3849.23
3901.17
3950.83
3998.01
4042.51
4084.14
4122.74
4158.15
4190.24
4218.9
4244.04
4265.59
4283.49
4297.73
4308.29
4315.18
4318.46
4318.16
4314.37
4307.19
4296.72
4283.11
4266.49
4247.03
4224.91
4200.32
4173.46
4144.54
4113.77
4081.38
4047.59
4012.61
3976.64
3939.85
3902.31
3863.97
3824.5
3783.07
3737.84
3685.15
3617.72
3521.51
3369.42
3109.44
2641.88
1774.48