<?xml version="1.0"?>
<VTKFile type="ImageData" version="0.1" byte_order="LittleEndian">
  <ImageData Origin="0 0 0" Spacing="1e-05 1e-05 1e-05" WholeExtent="0 191 0 191 0 0">
    <Piece Extent="0 191 0 191 0 0">
      <CellData Scalars="T">
        <DataArray type="Float32" Name="T" format="ascii" NumberOfComponents="1">
690.695
15000
15000
15000
15000
15000
15000
15000
14999.9
14999.9
14999.9
14999.8
14999.8
14999.7
14999.7
14999.6
14999.6
14999.5
14999.5
14999.4
14999.3
14999.3
14999.2
14999.2
14999.2
14999.2
14999.2
14999.2
14999.2
14999.2
14999.2
14999.2
14999.3
14999.3
14999.4
14999.4
14999.5
14999.5
14999.6
14999.6
14999.6
14999.7
14999.7
14999.7
14999.8
14999.8
14999.8
14999.8
14999.8
14999.8
14999.8
14999.8
14999.8
14999.7
14999.7
14999.6
14999.5
14999.4
14999.3
14999.1
14998.9
14998.7
14998.4
14998.1
14997.7
14997.2
14996.6
14995.9
14995.1
14994.2
14993
14991.7
14990.2
14988.3
14986.2
14983.8
14980.9
14977.6
14973.7
14969.3
14964.2
14958.4
14951.8
14944.2
14935.6
14925.8
14914.7
14902.2
14888.1
14872.3
14854.5
14834.7
14812.5
14787.9
14760.6
14730.3
14696.9
14660.1
14619.6
14575.2
14526.7
14473.8
14416.1
14353.6
14285.8
14212.5
14133.6
14048.7
13957.6
13860.1
13756
13645.2
13527.5
13402.6
13270.7
13131.4
12984.9
12831.1
12670.1
12501.8
12326.4
12144
11954.8
11759.1
11557
11348.9
11135.2
10916.1
10692.1
10463.7
10231.3
9995.46
9756.68
9515.53
9272.59
9028.45
8783.72
8539.01
8294.95
8052.15
7811.22
7572.79
7337.43
7105.74
6878.27
6655.55
6438.1
6226.4
6020.89
5822
5630.1
5445.53
5268.59
5099.54
4938.61
4785.98
4641.79
4506.13
4379.06
4260.62
4150.78
4049.5
3956.7
3872.25
3796.01
3727.82
3667.47
3614.75
3569.41
3531.19
3499.82
3475
3456.44
3443.81
3436.79
3435.04
3438.19
3445.87
3457.63
3472.94
3491.12
3511.12
3531.32
3548.9
3558.85
3551.92
3510.75
3402.23
3161.98
2661.01
1626.61
336.032
2435
15000
15000
15000
15000
15000
15000
14999.9
14999.9
14999.9
14999.9
14999.8
14999.8
14999.7
14999.7
14999.6
14999.5
14999.5
14999.4
14999.3
14999.3
14999.2
14999.2
14999.1
14999.1
14999.1
14999.1
14999.1
14999.1
14999.1
14999.1
14999.2
14999.2
14999.2
14999.3
14999.4
14999.4
14999.5
14999.5
14999.6
14999.6
14999.7
14999.7
14999.7
14999.8
14999.8
14999.8
14999.8
14999.8
14999.8
14999.8
14999.8
14999.8
14999.7
14999.7
14999.6
14999.5
14999.4
14999.3
14999.1
14998.9
14998.7
14998.4
14998.1
14997.7
14997.2
14996.6
14995.9
14995.1
14994.2
14993
14991.7
14990.2
14988.3
14986.2
14983.8
14980.9
14977.6
14973.7
14969.3
14964.3
14958.4
14951.8
14944.2
14935.6
14925.8
14914.7
14902.2
14888.1
14872.3
14854.5
14834.7
14812.6
14787.9
14760.6
14730.4
14697
14660.1
14619.7
14575.3
14526.8
14473.8
14416.2
14353.6
14285.9
14212.6
14133.7
14048.8
13957.7
13860.2
13756.2
13645.4
13527.6
13402.8
13270.8
13131.6
12985.1
12831.3
12670.2
12502
12326.6
12144.2
11955
11759.3
11557.2
11349.1
11135.4
10916.3
10692.3
10463.9
10231.5
9995.59
9756.79
9515.62
9272.66
9028.49
8783.73
8539
8294.9
8052.06
7811.1
7572.63
7337.23
7105.49
6877.96
6655.19
6437.69
6225.93
6020.37
5821.41
5629.44
5444.8
5267.8
5098.68
4937.68
4784.98
4640.71
4504.97
4377.83
4259.31
4149.4
4048.04
3955.15
3870.62
3794.31
3726.04
3665.61
3612.81
3567.4
3529.11
3497.66
3472.78
3454.14
3441.45
3434.36
3432.54
3435.64
3443.26
3454.96
3470.23
3488.36
3508.33
3528.52
3546.13
3556.22
3549.72
3509.77
3404.93
3176.62
2717.89
1846.22
501.136
2435
15000
15000
15000
15000
15000
15000
14999.9
14999.9
14999.9
14999.8
14999.8
14999.7
14999.7
14999.6
14999.5
14999.4
14999.4
14999.3
14999.2
14999.1
14999.1
14999
14998.9
14998.9
14998.9
14998.9
14998.9
14998.9
14998.9
14999
14999
14999
14999.1
14999.2
14999.2
14999.3
14999.4
14999.4
14999.5
14999.5
14999.6
14999.6
14999.7
14999.7
14999.7
14999.8
14999.8
14999.8
14999.8
14999.8
14999.8
14999.7
14999.7
14999.7
14999.6
14999.5
14999.4
14999.3
14999.1
14998.9
14998.7
14998.4
14998.1
14997.7
14997.2
14996.6
14995.9
14995.1
14994.2
14993
14991.7
14990.2
14988.3
14986.2
14983.8
14980.9
14977.6
14973.7
14969.3
14964.3
14958.5
14951.8
14944.2
14935.6
14925.8
14914.7
14902.2
14888.2
14872.3
14854.6
14834.8
14812.6
14788
14760.7
14730.4
14697
14660.2
14619.8
14575.4
14526.9
14474
14416.4
14353.8
14286
14212.8
14133.9
14049
13957.9
13860.5
13756.4
13645.6
13527.9
13403.1
13271.1
13131.9
12985.5
12831.7
12670.6
12502.3
12326.9
12144.6
11955.4
11759.7
11557.6
11349.5
11135.7
10916.6
10692.6
10464.2
10231.8
9995.85
9757.02
9515.81
9272.8
9028.58
8783.77
8538.97
8294.81
8051.9
7810.86
7572.3
7336.82
7104.98
6877.36
6654.49
6436.87
6225
6019.31
5820.23
5628.14
5443.37
5266.22
5096.97
4935.82
4782.97
4638.55
4502.66
4375.37
4256.7
4146.63
4045.11
3952.07
3867.38
3790.92
3722.49
3661.91
3608.96
3563.39
3524.95
3493.36
3468.34
3449.56
3436.73
3429.52
3427.58
3430.55
3438.06
3449.65
3464.82
3482.86
3502.77
3522.92
3540.57
3550.87
3544.94
3506.5
3405.44
3186.35
2748.21
1909.43
501.879
2449.79
15000
15000
15000
15000
15000
14999.9
14999.9
14999.9
14999.8
14999.8
14999.7
14999.7
14999.6
14999.5
14999.4
14999.3
14999.2
14999.1
14999
14998.9
14998.8
14998.7
14998.7
14998.6
14998.6
14998.6
14998.6
14998.6
14998.7
14998.7
14998.8
14998.8
14998.9
14999
14999
14999.1
14999.2
14999.3
14999.4
14999.4
14999.5
14999.6
14999.6
14999.7
14999.7
14999.7
14999.7
14999.8
14999.8
14999.8
14999.8
14999.7
14999.7
14999.7
14999.6
14999.5
14999.4
14999.3
14999.1
14998.9
14998.7
14998.4
14998.1
14997.7
14997.2
14996.6
14995.9
14995.1
14994.2
14993
14991.7
14990.2
14988.4
14986.2
14983.8
14980.9
14977.6
14973.8
14969.4
14964.3
14958.5
14951.8
14944.3
14935.6
14925.9
14914.8
14902.3
14888.2
14872.4
14854.7
14834.8
14812.7
14788.1
14760.8
14730.6
14697.2
14660.4
14619.9
14575.6
14527.1
14474.2
14416.6
14354.1
14286.3
14213.1
14134.2
14049.3
13958.3
13860.9
13756.8
13646.1
13528.3
13403.6
13271.6
13132.4
12986
12832.2
12671.2
12502.9
12327.5
12145.2
11956
11760.2
11558.2
11350.1
11136.3
10917.2
10693.1
10464.7
10232.2
9996.24
9757.36
9516.09
9273.01
9028.72
8783.83
8538.94
8294.68
8051.67
7810.51
7571.83
7336.21
7104.24
6876.46
6653.43
6435.66
6223.61
6017.75
5818.48
5626.19
5441.23
5263.88
5094.41
4933.05
4779.98
4635.34
4499.23
4371.7
4252.8
4142.5
4040.75
3947.47
3862.55
3785.85
3717.19
3656.38
3603.2
3557.41
3518.75
3486.95
3461.71
3442.73
3429.7
3422.29
3420.16
3422.95
3430.29
3441.73
3456.74
3474.65
3494.45
3514.53
3532.2
3542.68
3537.3
3500.18
3402.05
3189.06
2762.55
1943.2
505.271
2457.41
15000
15000
15000
15000
15000
14999.9
14999.9
14999.9
14999.8
14999.7
14999.7
14999.6
14999.5
14999.3
14999.2
14999.1
14999
14998.8
14998.7
14998.6
14998.5
14998.4
14998.3
14998.3
14998.2
14998.2
14998.2
14998.2
14998.3
14998.3
14998.4
14998.5
14998.6
14998.7
14998.8
14998.9
14999
14999.1
14999.2
14999.3
14999.4
14999.4
14999.5
14999.6
14999.6
14999.7
14999.7
14999.7
14999.7
14999.7
14999.7
14999.7
14999.7
14999.6
14999.6
14999.5
14999.4
14999.3
14999.1
14998.9
14998.7
14998.4
14998.1
14997.7
14997.2
14996.6
14995.9
14995.1
14994.2
14993.1
14991.7
14990.2
14988.4
14986.2
14983.8
14980.9
14977.6
14973.8
14969.4
14964.3
14958.5
14951.9
14944.3
14935.7
14925.9
14914.9
14902.4
14888.3
14872.5
14854.8
14834.9
14812.8
14788.2
14760.9
14730.7
14697.4
14660.6
14620.2
14575.8
14527.4
14474.5
14416.9
14354.4
14286.7
14213.5
14134.6
14049.8
13958.8
13861.4
13757.4
13646.6
13528.9
13404.2
13272.3
13133.1
12986.7
12832.9
12671.9
12503.6
12328.3
12145.9
11956.8
11761
11558.9
11350.8
11137
10917.9
10693.8
10465.3
10232.8
9996.77
9757.81
9516.47
9273.3
9028.92
8783.91
8538.9
8294.51
8051.36
7810.05
7571.21
7335.41
7103.25
6875.29
6652.05
6434.05
6221.78
6015.68
5816.17
5623.63
5438.4
5260.78
5091.04
4929.39
4776.03
4631.09
4494.68
4366.86
4247.65
4137.03
4034.98
3941.39
3856.16
3779.15
3710.18
3649.07
3595.59
3549.5
3510.55
3478.45
3452.93
3433.68
3420.38
3412.72
3410.34
3412.89
3420
3431.22
3446.04
3463.77
3483.41
3503.39
3521.03
3531.64
3526.69
3490.56
3394.46
3185.22
2764.64
1951.82
517.925
2435
15000
15000
15000
15000
14999.9
14999.9
14999.9
14999.8
14999.8
14999.7
14999.6
14999.4
14999.3
14999.2
14999
14998.8
14998.7
14998.5
14998.4
14998.2
14998.1
14998
14997.9
14997.8
14997.8
14997.7
14997.7
14997.8
14997.8
14997.9
14998
14998.1
14998.2
14998.3
14998.5
14998.6
14998.7
14998.8
14999
14999.1
14999.2
14999.3
14999.4
14999.5
14999.5
14999.6
14999.6
14999.7
14999.7
14999.7
14999.7
14999.7
14999.7
14999.6
14999.6
14999.5
14999.4
14999.3
14999.1
14998.9
14998.7
14998.4
14998.1
14997.7
14997.2
14996.6
14995.9
14995.1
14994.2
14993.1
14991.7
14990.2
14988.4
14986.3
14983.8
14980.9
14977.6
14973.8
14969.4
14964.3
14958.5
14951.9
14944.3
14935.7
14926
14914.9
14902.4
14888.4
14872.6
14854.9
14835.1
14813
14788.4
14761.1
14730.9
14697.6
14660.8
14620.4
14576.1
14527.7
14474.8
14417.3
14354.8
14287.1
14214
14135.1
14050.3
13959.3
13862
13758
13647.3
13529.7
13404.9
13273.1
13133.9
12987.5
12833.8
12672.8
12504.6
12329.2
12146.9
11957.7
11762
11559.9
11351.8
11137.9
10918.7
10694.7
10466.1
10233.5
9997.42
9758.39
9516.94
9273.67
9029.16
8784.03
8538.87
8294.32
8050.99
7809.5
7570.45
7334.44
7102.05
6873.84
6650.35
6432.08
6219.53
6013.14
5813.32
5620.46
5434.91
5256.95
5086.87
4924.87
4771.15
4625.85
4489.06
4360.86
4241.27
4130.28
4027.83
3933.86
3848.25
3770.85
3701.51
3640.01
3586.16
3539.7
3500.38
3467.93
3442.06
3422.47
3408.84
3400.85
3398.16
3400.42
3407.24
3418.2
3432.76
3450.26
3469.7
3489.53
3507.1
3517.77
3513.11
3477.67
3382.83
3175.26
2754.56
1928.55
513.813
2435
15000
15000
15000
15000
14999.9
14999.9
14999.8
14999.8
14999.7
14999.6
14999.5
14999.3
14999.1
14999
14998.8
14998.6
14998.3
14998.1
14997.9
14997.8
14997.6
14997.4
14997.3
14997.2
14997.2
14997.1
14997.2
14997.2
14997.3
14997.3
14997.5
14997.6
14997.7
14997.9
14998
14998.2
14998.4
14998.5
14998.7
14998.8
14999
14999.1
14999.2
14999.3
14999.4
14999.5
14999.6
14999.6
14999.6
14999.7
14999.7
14999.7
14999.6
14999.6
14999.6
14999.5
14999.4
14999.3
14999.1
14998.9
14998.7
14998.4
14998.1
14997.7
14997.2
14996.6
14996
14995.1
14994.2
14993.1
14991.8
14990.2
14988.4
14986.3
14983.8
14981
14977.7
14973.8
14969.4
14964.4
14958.6
14952
14944.4
14935.8
14926.1
14915
14902.5
14888.5
14872.7
14855
14835.2
14813.2
14788.6
14761.3
14731.2
14697.8
14661.1
14620.7
14576.5
14528.1
14475.2
14417.7
14355.3
14287.6
14214.5
14135.7
14051
13960
13862.7
13758.8
13648.1
13530.5
13405.9
13274
13134.9
12988.5
12834.9
12673.9
12505.7
12330.4
12148
11958.9
11763.1
11561
11352.9
11139
10919.8
10695.7
10467
10234.4
9998.22
9759.08
9517.53
9274.13
9029.47
8784.18
8538.85
8294.1
8050.57
7808.85
7569.56
7333.3
7100.64
6872.14
6648.34
6429.76
6216.87
6010.13
5809.96
5616.72
5430.78
5252.43
5081.93
4919.52
4765.37
4619.63
4482.41
4353.76
4233.72
4122.27
4019.37
3924.94
3838.87
3761.02
3691.22
3629.27
3574.97
3528.07
3488.32
3455.45
3429.16
3409.16
3395.14
3386.77
3383.71
3385.61
3392.09
3402.72
3416.99
3434.21
3453.41
3473.04
3490.49
3501.15
3496.69
3461.78
3368.01
3162.35
2745.37
1928.97
516.075
2435
15000
15000
15000
15000
14999.9
14999.9
14999.8
14999.7
14999.6
14999.5
14999.3
14999.1
14998.9
14998.7
14998.5
14998.2
14998
14997.7
14997.5
14997.2
14997
14996.8
14996.7
14996.6
14996.5
14996.5
14996.5
14996.5
14996.6
14996.7
14996.8
14997
14997.2
14997.4
14997.6
14997.8
14998
14998.2
14998.4
14998.6
14998.7
14998.9
14999
14999.2
14999.3
14999.4
14999.5
14999.5
14999.6
14999.6
14999.6
14999.6
14999.6
14999.6
14999.5
14999.5
14999.4
14999.3
14999.1
14998.9
14998.7
14998.4
14998.1
14997.7
14997.2
14996.6
14996
14995.2
14994.2
14993.1
14991.8
14990.2
14988.4
14986.3
14983.8
14981
14977.7
14973.9
14969.5
14964.4
14958.6
14952
14944.5
14935.9
14926.1
14915.1
14902.7
14888.6
14872.8
14855.2
14835.4
14813.4
14788.8
14761.6
14731.4
14698.1
14661.5
14621.1
14576.9
14528.5
14475.7
14418.3
14355.9
14288.3
14215.2
14136.4
14051.7
13960.9
13863.6
13759.7
13649.1
13531.5
13406.9
13275.1
13136.1
12989.7
12836.1
12675.2
12507
12331.7
12149.4
11960.2
11764.5
11562.4
11354.2
11140.3
10921
10696.8
10468.1
10235.4
9999.15
9759.9
9518.21
9274.67
9029.85
8784.37
8538.84
8293.88
8050.1
7808.13
7568.57
7332.01
7099.03
6870.21
6646.06
6427.11
6213.84
6006.7
5806.11
5612.44
5426.05
5247.24
5076.28
4913.38
4758.74
4612.5
4474.77
4345.61
4225.04
4113.07
4009.64
3914.68
3828.08
3749.7
3679.38
3616.91
3562.1
3514.69
3474.44
3441.07
3414.3
3393.83
3379.35
3370.54
3367.05
3368.54
3374.63
3384.89
3398.8
3415.7
3434.6
3453.99
3471.27
3481.88
3477.57
3443.17
3350.56
3147.56
2737.48
1943.08
530.514
2435
15000
15000
15000
14999.9
14999.9
14999.8
14999.8
14999.7
14999.5
14999.4
14999.2
14999
14998.7
14998.4
14998.2
14997.8
14997.5
14997.2
14996.9
14996.6
14996.4
14996.1
14996
14995.8
14995.7
14995.7
14995.7
14995.7
14995.8
14995.9
14996.1
14996.3
14996.5
14996.8
14997
14997.3
14997.5
14997.8
14998
14998.2
14998.4
14998.6
14998.8
14999
14999.1
14999.2
14999.3
14999.4
14999.5
14999.5
14999.6
14999.6
14999.6
14999.6
14999.5
14999.5
14999.4
14999.2
14999.1
14998.9
14998.7
14998.4
14998.1
14997.7
14997.2
14996.6
14996
14995.2
14994.2
14993.1
14991.8
14990.2
14988.4
14986.3
14983.9
14981
14977.7
14973.9
14969.5
14964.5
14958.7
14952.1
14944.6
14936
14926.2
14915.2
14902.8
14888.8
14873
14855.4
14835.6
14813.6
14789.1
14761.9
14731.8
14698.5
14661.8
14621.5
14577.4
14529
14476.3
14418.9
14356.5
14289
14216
14137.2
14052.6
13961.8
13864.6
13760.8
13650.2
13532.7
13408.1
13276.4
13137.4
12991.1
12837.5
12676.6
12508.5
12333.2
12150.9
11961.8
11766
11563.9
11355.7
11141.8
10922.5
10698.2
10469.4
10236.6
10000.2
9760.85
9519.02
9275.3
9030.3
8784.62
8538.86
8293.65
8049.61
7807.35
7567.48
7330.59
7097.26
6868.06
6643.52
6424.16
6210.45
6002.86
5801.8
5607.65
5420.76
5241.43
5069.94
4906.5
4751.3
4604.5
4466.19
4336.45
4215.3
4102.73
3998.71
3903.16
3815.96
3736.98
3666.07
3603.01
3547.61
3499.63
3458.81
3424.89
3397.57
3376.57
3361.57
3352.26
3348.29
3349.31
3354.95
3364.78
3378.29
3394.82
3413.39
3432.49
3449.56
3460.08
3455.88
3421.96
3330.55
3130.15
2725.26
1939.39
538.297
2435
15000
15000
15000
14999.9
14999.9
14999.8
14999.7
14999.6
14999.5
14999.3
14999
14998.8
14998.5
14998.2
14997.8
14997.4
14997.1
14996.7
14996.3
14996
14995.7
14995.4
14995.2
14995
14994.9
14994.8
14994.8
14994.9
14995
14995.1
14995.3
14995.5
14995.8
14996.1
14996.4
14996.7
14997
14997.3
14997.6
14997.8
14998.1
14998.3
14998.6
14998.8
14998.9
14999.1
14999.2
14999.3
14999.4
14999.5
14999.5
14999.5
14999.5
14999.5
14999.5
14999.4
14999.4
14999.2
14999.1
14998.9
14998.7
14998.4
14998.1
14997.7
14997.2
14996.6
14996
14995.2
14994.2
14993.1
14991.8
14990.2
14988.4
14986.3
14983.9
14981
14977.8
14974
14969.6
14964.5
14958.8
14952.2
14944.6
14936.1
14926.4
14915.4
14902.9
14888.9
14873.2
14855.6
14835.8
14813.9
14789.4
14762.2
14732.1
14698.9
14662.3
14622
14577.9
14529.6
14476.9
14419.5
14357.2
14289.7
14216.8
14138.1
14053.6
13962.8
13865.7
13761.9
13651.4
13534
13409.5
13277.8
13138.9
12992.6
12839.1
12678.2
12510.1
12334.9
12152.6
11963.5
11767.7
11565.6
11357.4
11143.4
10924.1
10699.7
10470.9
10237.9
10001.4
9761.93
9519.93
9276.04
9030.83
8784.92
8538.92
8293.44
8049.1
7806.52
7566.31
7329.05
7095.34
6865.72
6640.75
6420.93
6206.75
5998.66
5797.08
5602.39
5414.95
5235.05
5062.96
4898.92
4743.11
4595.68
4456.74
4326.35
4204.55
4091.33
3986.65
3890.43
3802.57
3722.94
3651.36
3587.65
3531.6
3482.98
3441.53
3406.99
3379.07
3357.48
3341.9
3332.03
3327.51
3328.02
3333.16
3342.51
3355.57
3371.68
3389.87
3408.64
3425.46
3435.85
3431.71
3398.22
3307.88
3109.71
2709.02
1931.57
542.646
2435
15000
15000
15000
14999.9
14999.9
14999.8
14999.7
14999.5
14999.4
14999.2
14998.9
14998.6
14998.3
14997.9
14997.5
14997
14996.6
14996.2
14995.7
14995.3
14994.9
14994.6
14994.3
14994.1
14994
14993.9
14993.9
14993.9
14994.1
14994.2
14994.5
14994.7
14995
14995.3
14995.7
14996
14996.4
14996.8
14997.1
14997.4
14997.7
14998
14998.3
14998.5
14998.7
14998.9
14999.1
14999.2
14999.3
14999.4
14999.5
14999.5
14999.5
14999.5
14999.5
14999.4
14999.3
14999.2
14999.1
14998.9
14998.7
14998.4
14998.1
14997.7
14997.2
14996.7
14996
14995.2
14994.2
14993.1
14991.8
14990.3
14988.5
14986.4
14983.9
14981.1
14977.8
14974
14969.6
14964.6
14958.8
14952.3
14944.7
14936.2
14926.5
14915.5
14903.1
14889.1
14873.4
14855.8
14836.1
14814.1
14789.7
14762.6
14732.5
14699.3
14662.7
14622.5
14578.4
14530.2
14477.6
14420.3
14358
14290.6
14217.7
14139.1
14054.6
13963.9
13866.9
13763.2
13652.8
13535.4
13411
13279.4
13140.5
12994.3
12840.8
12680
12511.9
12336.7
12154.5
11965.4
11769.6
11567.5
11359.2
11145.2
10925.8
10701.4
10472.5
10239.4
10002.8
9763.14
9520.97
9276.88
9031.46
8785.3
8539.03
8293.25
8048.59
7805.67
7565.08
7327.42
7093.28
6863.22
6637.77
6417.46
6202.75
5994.12
5791.98
5596.7
5408.65
5228.13
5055.4
4890.71
4734.23
4586.11
4446.48
4315.39
4192.87
4078.93
3973.53
3876.59
3788
3707.65
3635.35
3570.93
3514.17
3464.85
3422.71
3387.49
3358.9
3336.66
3320.45
3309.95
3304.84
3304.77
3309.36
3318.19
3330.76
3346.4
3364.17
3382.58
3399.1
3409.31
3405.18
3371.99
3282.42
3085.51
2685.61
1901.49
519.18
2435
15000
15000
15000
14999.9
14999.9
14999.8
14999.6
14999.5
14999.3
14999
14998.8
14998.4
14998
14997.6
14997.1
14996.6
14996.1
14995.6
14995.1
14994.6
14994.2
14993.8
14993.5
14993.2
14993.1
14993
14992.9
14993
14993.1
14993.3
14993.6
14993.9
14994.2
14994.6
14995
14995.4
14995.8
14996.2
14996.6
14997
14997.3
14997.7
14998
14998.3
14998.5
14998.7
14998.9
14999.1
14999.2
14999.3
14999.4
14999.4
14999.5
14999.5
14999.4
14999.4
14999.3
14999.2
14999.1
14998.9
14998.7
14998.4
14998.1
14997.7
14997.2
14996.7
14996
14995.2
14994.2
14993.1
14991.8
14990.3
14988.5
14986.4
14984
14981.1
14977.8
14974.1
14969.7
14964.7
14958.9
14952.3
14944.8
14936.3
14926.6
14915.7
14903.3
14889.3
14873.6
14856
14836.4
14814.4
14790
14762.9
14732.9
14699.8
14663.3
14623.1
14579.1
14530.9
14478.3
14421.1
14358.9
14291.5
14218.7
14140.2
14055.8
13965.2
13868.2
13764.6
13654.2
13536.9
13412.6
13281.1
13142.3
12996.1
12842.7
12681.9
12513.9
12338.7
12156.5
11967.4
11771.7
11569.5
11361.3
11147.2
10927.8
10703.3
10474.2
10241.1
10004.3
9764.49
9522.14
9277.83
9032.17
8785.75
8539.19
8293.1
8048.09
7804.79
7563.8
7325.72
7091.13
6860.58
6634.62
6413.77
6198.51
5989.29
5786.53
5590.63
5401.92
5220.73
5047.31
4881.91
4724.7
4575.85
4435.47
4303.62
4180.33
4065.62
3959.44
3861.71
3772.34
3691.2
3618.13
3552.93
3495.4
3445.32
3402.43
3366.48
3337.17
3314.22
3297.32
3286.16
3280.4
3279.71
3283.7
3291.95
3303.98
3319.11
3336.42
3354.41
3370.6
3380.59
3376.42
3343.43
3254.4
3058.31
2658.94
1873.19
511.644
2435
15000
15000
15000
14999.9
14999.8
14999.7
14999.6
14999.4
14999.2
14998.9
14998.6
14998.2
14997.8
14997.3
14996.8
14996.3
14995.7
14995.1
14994.5
14994
14993.5
14993.1
14992.7
14992.4
14992.2
14992
14992
14992
14992.2
14992.4
14992.6
14993
14993.4
14993.8
14994.2
14994.7
14995.2
14995.6
14996.1
14996.5
14996.9
14997.3
14997.7
14998
14998.3
14998.5
14998.7
14998.9
14999.1
14999.2
14999.3
14999.4
14999.4
14999.4
14999.4
14999.4
14999.3
14999.2
14999.1
14998.9
14998.7
14998.4
14998.1
14997.7
14997.2
14996.7
14996
14995.2
14994.3
14993.1
14991.8
14990.3
14988.5
14986.4
14984
14981.2
14977.9
14974.1
14969.8
14964.7
14959
14952.4
14945
14936.4
14926.8
14915.8
14903.5
14889.5
14873.9
14856.3
14836.7
14814.8
14790.4
14763.4
14733.4
14700.3
14663.8
14623.7
14579.7
14531.6
14479.1
14421.9
14359.8
14292.6
14219.8
14141.4
14057
13966.5
13869.6
13766.1
13655.8
13538.6
13414.3
13282.9
13144.2
12998.1
12844.7
12684
12516.1
12340.9
12158.8
11969.7
11773.9
11571.8
11363.5
11149.4
10929.9
10705.3
10476.2
10242.9
10006
9765.99
9523.43
9278.91
9032.99
8786.29
8539.42
8292.99
8047.62
7803.92
7562.51
7323.97
7088.89
6857.83
6631.33
6409.9
6194.04
5984.2
5780.79
5584.21
5394.81
5212.9
5038.74
4872.58
4714.61
4564.97
4423.78
4291.12
4167.01
4051.47
3944.45
3845.89
3755.69
3673.71
3599.79
3533.77
3475.42
3424.52
3380.83
3344.08
3314
3290.29
3272.65
3260.77
3254.31
3252.94
3256.29
3263.93
3275.36
3289.95
3306.75
3324.29
3340.11
3349.84
3345.59
3312.8
3224.37
3029.59
2632.95
1853.98
508.278
2435
15000
15000
14999.9
14999.9
14999.8
14999.7
14999.6
14999.4
14999.2
14998.9
14998.5
14998.1
14997.6
14997.1
14996.5
14995.9
14995.3
14994.6
14994
14993.4
14992.9
14992.3
14991.9
14991.6
14991.3
14991.1
14991.1
14991.1
14991.2
14991.5
14991.8
14992.1
14992.5
14993
14993.5
14994
14994.5
14995
14995.5
14996
14996.5
14996.9
14997.3
14997.7
14998
14998.3
14998.6
14998.8
14999
14999.1
14999.2
14999.3
14999.4
14999.4
14999.4
14999.4
14999.3
14999.2
14999.1
14998.9
14998.7
14998.4
14998.1
14997.7
14997.2
14996.7
14996
14995.2
14994.3
14993.2
14991.9
14990.3
14988.5
14986.5
14984
14981.2
14977.9
14974.2
14969.8
14964.8
14959.1
14952.5
14945.1
14936.6
14926.9
14916
14903.7
14889.8
14874.1
14856.6
14837
14815.1
14790.8
14763.8
14733.9
14700.8
14664.4
14624.4
14580.5
14532.4
14480
14422.9
14360.8
14293.6
14221
14142.7
14058.4
13968
13871.1
13767.7
13657.5
13540.4
13416.2
13284.9
13146.2
13000.3
12846.9
12686.3
12518.4
12343.3
12161.2
11972.1
11776.4
11574.2
11365.9
11151.8
10932.2
10707.5
10478.3
10244.9
10007.8
9767.62
9524.86
9280.1
9033.92
8786.93
8539.73
8292.94
8047.18
7803.07
7561.2
7322.18
7086.59
6854.99
6627.91
6405.88
6189.39
5978.89
5774.79
5577.5
5387.37
5204.69
5029.76
4862.8
4704
4553.53
4411.49
4277.97
4152.99
4036.57
3928.67
3829.22
3738.12
3655.25
3580.45
3513.54
3454.32
3402.56
3358.01
3320.42
3289.51
3264.99
3246.56
3233.91
3226.71
3224.62
3227.27
3234.25
3245.06
3259.05
3275.31
3292.37
3307.78
3317.23
3312.89
3280.35
3192.83
3000.41
2609.88
1846.38
510.815
2435
15000
15000
14999.9
14999.9
14999.8
14999.7
14999.6
14999.4
14999.1
14998.8
14998.4
14998
14997.5
14996.9
14996.3
14995.6
14995
14994.3
14993.6
14992.9
14992.3
14991.7
14991.2
14990.8
14990.5
14990.3
14990.3
14990.3
14990.4
14990.6
14990.9
14991.3
14991.7
14992.2
14992.8
14993.3
14993.9
14994.5
14995
14995.6
14996.1
14996.6
14997
14997.4
14997.8
14998.1
14998.4
14998.6
14998.8
14999
14999.1
14999.2
14999.3
14999.3
14999.4
14999.3
14999.3
14999.2
14999.1
14998.9
14998.7
14998.4
14998.1
14997.7
14997.2
14996.7
14996
14995.2
14994.3
14993.2
14991.9
14990.4
14988.6
14986.5
14984.1
14981.3
14978
14974.2
14969.9
14964.9
14959.2
14952.7
14945.2
14936.7
14927.1
14916.2
14903.9
14890
14874.4
14856.9
14837.4
14815.5
14791.2
14764.3
14734.4
14701.4
14665.1
14625.1
14581.2
14533.3
14480.9
14423.9
14361.9
14294.8
14222.3
14144
14059.8
13969.5
13872.8
13769.4
13659.4
13542.3
13418.2
13287
13148.4
13002.5
12849.3
12688.7
12520.9
12345.8
12163.7
11974.7
11779
11576.8
11368.5
11154.3
10934.6
10709.9
10480.5
10247
10009.8
9769.41
9526.43
9281.42
9034.96
8787.66
8540.12
8292.97
8046.8
7802.25
7559.91
7320.39
7084.26
6852.09
6624.41
6401.75
6184.59
5973.4
5768.58
5570.55
5379.63
5196.16
5020.41
4852.61
4692.95
4541.6
4398.68
4264.25
4138.36
4021.01
3912.18
3811.79
3719.76
3635.95
3560.21
3492.37
3432.22
3379.55
3334.1
3295.62
3263.83
3238.46
3219.19
3205.73
3197.74
3194.89
3196.8
3203.07
3213.21
3226.57
3242.25
3258.78
3273.76
3282.91
3278.49
3246.27
3159.85
2970.13
2585.96
1839.42
513.883
2435
15000
15000
14999.9
14999.9
14999.8
14999.7
14999.5
14999.3
14999.1
14998.8
14998.4
14997.9
14997.4
14996.8
14996.1
14995.4
14994.7
14994
14993.2
14992.5
14991.8
14991.2
14990.7
14990.2
14989.9
14989.7
14989.5
14989.5
14989.6
14989.9
14990.2
14990.6
14991
14991.5
14992.1
14992.7
14993.3
14993.9
14994.5
14995.1
14995.7
14996.2
14996.7
14997.2
14997.6
14997.9
14998.2
14998.5
14998.7
14998.9
14999.1
14999.2
14999.3
14999.3
14999.3
14999.3
14999.3
14999.2
14999
14998.9
14998.7
14998.4
14998.1
14997.7
14997.2
14996.7
14996
14995.2
14994.3
14993.2
14991.9
14990.4
14988.6
14986.5
14984.1
14981.3
14978.1
14974.3
14970
14965
14959.3
14952.8
14945.3
14936.9
14927.3
14916.4
14904.1
14890.3
14874.7
14857.2
14837.7
14815.9
14791.7
14764.8
14735
14702
14665.7
14625.8
14582.1
14534.1
14481.9
14424.9
14363.1
14296
14223.6
14145.4
14061.4
13971.1
13874.5
13771.3
13661.3
13544.4
13420.4
13289.2
13150.7
13004.9
12851.8
12691.3
12523.5
12348.5
12166.4
11977.4
11781.7
11579.6
11371.2
11157
10937.3
10712.5
10483
10249.3
10011.9
9771.33
9528.13
9282.87
9036.13
8788.51
8540.62
8293.07
8046.49
7801.48
7558.65
7318.6
7081.92
6849.15
6620.85
6397.53
6179.68
5967.77
5762.2
5563.39
5371.67
5187.37
5010.76
4842.08
4681.53
4529.26
4385.4
4250.03
4123.18
4004.87
3895.06
3793.7
3700.68
3615.89
3539.18
3470.36
3409.25
3355.61
3309.21
3269.8
3237.1
3210.82
3190.68
3176.36
3167.53
3163.87
3165.01
3170.54
3179.97
3192.67
3207.72
3223.7
3238.21
3247.04
3242.53
3210.65
3125.38
2938.32
2559.16
1817.36
512.739
2435
15000
15000
14999.9
14999.9
14999.8
14999.7
14999.5
14999.3
14999.1
14998.7
14998.3
14997.9
14997.3
14996.7
14996
14995.3
14994.5
14993.8
14993
14992.2
14991.5
14990.8
14990.3
14989.8
14989.4
14989.1
14989
14988.9
14989
14989.2
14989.5
14989.9
14990.4
14991
14991.5
14992.2
14992.8
14993.5
14994.1
14994.7
14995.3
14995.9
14996.4
14996.9
14997.4
14997.7
14998.1
14998.4
14998.6
14998.8
14999
14999.1
14999.2
14999.3
14999.3
14999.3
14999.2
14999.2
14999
14998.9
14998.7
14998.4
14998.1
14997.7
14997.3
14996.7
14996
14995.3
14994.3
14993.2
14991.9
14990.4
14988.6
14986.6
14984.2
14981.4
14978.1
14974.4
14970.1
14965.1
14959.4
14952.9
14945.5
14937.1
14927.5
14916.6
14904.3
14890.5
14875
14857.6
14838.1
14816.4
14792.2
14765.3
14735.6
14702.7
14666.5
14626.6
14582.9
14535.1
14482.9
14426
14364.3
14297.3
14225
14146.9
14063
13972.8
13876.3
13773.2
13663.3
13546.5
13422.6
13291.5
13153.2
13007.5
12854.4
12694
12526.3
12351.3
12169.3
11980.4
11784.7
11582.5
11374.1
11159.8
10940.1
10715.2
10485.6
10251.7
10014.2
9773.41
9529.98
9284.45
9037.42
8789.47
8541.21
8293.27
8046.25
7800.77
7557.44
7316.85
7079.58
6846.21
6617.26
6393.26
6174.7
5962.03
5755.69
5556.07
5363.52
5178.35
5000.86
4831.27
4669.79
4516.58
4371.75
4235.4
4107.56
3988.24
3877.42
3775.04
3681.01
3595.2
3517.46
3447.63
3385.51
3330.87
3283.49
3243.1
3209.44
3182.22
3161.16
3145.94
3136.24
3131.74
3132.06
3136.81
3145.49
3157.48
3171.88
3187.28
3201.3
3209.77
3205.16
3173.6
3089.44
2904.91
2531.21
1804.76
511.344
2435
15000
15000
14999.9
14999.9
14999.8
14999.7
14999.5
14999.3
14999.1
14998.7
14998.3
14997.9
14997.3
14996.7
14996
14995.3
14994.5
14993.7
14992.9
14992.1
14991.3
14990.6
14990
14989.5
14989
14988.7
14988.6
14988.5
14988.6
14988.8
14989
14989.4
14989.9
14990.5
14991.1
14991.7
14992.4
14993.1
14993.8
14994.4
14995
14995.6
14996.2
14996.7
14997.2
14997.6
14997.9
14998.3
14998.5
14998.8
14998.9
14999.1
14999.2
14999.2
14999.3
14999.3
14999.2
14999.1
14999
14998.9
14998.7
14998.4
14998.1
14997.7
14997.3
14996.7
14996
14995.3
14994.3
14993.2
14992
14990.4
14988.7
14986.6
14984.2
14981.4
14978.2
14974.5
14970.2
14965.2
14959.5
14953
14945.6
14937.2
14927.7
14916.8
14904.6
14890.8
14875.3
14858
14838.5
14816.8
14792.7
14765.9
14736.2
14703.4
14667.2
14627.4
14583.8
14536.1
14484
14427.2
14365.5
14298.7
14226.4
14148.5
14064.6
13974.6
13878.2
13775.2
13665.5
13548.8
13425
13294
13155.8
13010.2
12857.2
12696.8
12529.2
12354.3
12172.3
11983.4
11787.7
11585.6
11377.2
11162.9
10943
10718
10488.3
10254.3
10016.6
9775.63
9531.97
9286.17
9038.83
8790.54
8541.92
8293.56
8046.1
7800.14
7556.29
7315.14
7077.28
6843.27
6613.66
6388.96
6169.66
5956.23
5749.09
5548.64
5355.23
5169.18
4990.77
4820.24
4657.81
4503.61
4357.79
4220.43
4091.56
3971.21
3859.35
3755.92
3660.83
3573.96
3495.17
3424.29
3361.12
3305.45
3257.04
3215.64
3180.98
3152.79
3130.77
3114.61
3104.01
3098.63
3098.1
3102.03
3109.93
3121.18
3134.9
3149.67
3163.17
3171.27
3166.53
3135.26
3052.12
2869.84
2500.08
1777.26
506.049
2435
15000
15000
14999.9
14999.9
14999.8
14999.7
14999.6
14999.4
14999.1
14998.8
14998.4
14997.9
14997.4
14996.7
14996.1
14995.3
14994.5
14993.7
14992.9
14992.1
14991.3
14990.6
14989.9
14989.4
14988.9
14988.6
14988.3
14988.2
14988.3
14988.5
14988.7
14989.1
14989.6
14990.1
14990.8
14991.4
14992.1
14992.8
14993.5
14994.2
14994.8
14995.4
14996
14996.5
14997
14997.5
14997.8
14998.2
14998.5
14998.7
14998.9
14999
14999.1
14999.2
14999.2
14999.2
14999.2
14999.1
14999
14998.9
14998.7
14998.4
14998.1
14997.7
14997.3
14996.7
14996.1
14995.3
14994.4
14993.3
14992
14990.5
14988.7
14986.7
14984.3
14981.5
14978.3
14974.5
14970.2
14965.3
14959.7
14953.2
14945.8
14937.4
14927.9
14917.1
14904.9
14891.1
14875.7
14858.3
14838.9
14817.3
14793.2
14766.5
14736.8
14704.1
14668
14628.3
14584.8
14537.1
14485.1
14428.4
14366.9
14300.1
14228
14150.1
14066.4
13976.5
13880.2
13777.3
13667.7
13551.1
13427.5
13296.6
13158.4
13012.9
12860.1
12699.8
12532.3
12357.4
12175.5
11986.6
11791
11588.8
11380.4
11166
10946.1
10721
10491.2
10257.1
10019.2
9778
9534.09
9288.02
9040.38
8791.74
8542.74
8293.97
8046.05
7799.59
7555.21
7313.49
7075.03
6840.38
6610.08
6384.66
6164.62
5950.4
5742.44
5541.13
5346.84
5159.88
4980.54
4809.06
4645.64
4490.44
4343.6
4205.19
4075.28
3953.86
3840.92
3736.41
3640.24
3552.29
3472.41
3400.45
3336.2
3279.46
3230
3187.55
3151.87
3122.66
3099.65
3082.53
3070.99
3064.69
3063.27
3066.35
3073.44
3083.93
3096.92
3111.05
3124
3131.7
3126.8
3095.78
3013.54
2833.09
2466.01
1744.01
500.124
2435
15000
15000
14999.9
14999.9
14999.8
14999.7
14999.6
14999.4
14999.1
14998.8
14998.4
14998
14997.4
14996.8
14996.2
14995.4
14994.7
14993.8
14993
14992.2
14991.4
14990.7
14990
14989.4
14988.9
14988.6
14988.3
14988.2
14988.2
14988.3
14988.6
14989
14989.4
14990
14990.6
14991.2
14991.9
14992.6
14993.3
14994
14994.6
14995.3
14995.9
14996.4
14996.9
14997.4
14997.8
14998.1
14998.4
14998.6
14998.8
14999
14999.1
14999.2
14999.2
14999.2
14999.2
14999.1
14999
14998.9
14998.7
14998.4
14998.1
14997.7
14997.3
14996.7
14996.1
14995.3
14994.4
14993.3
14992
14990.5
14988.8
14986.7
14984.3
14981.5
14978.3
14974.6
14970.3
14965.4
14959.8
14953.3
14946
14937.6
14928.1
14917.3
14905.2
14891.4
14876
14858.7
14839.4
14817.8
14793.8
14767.1
14737.5
14704.8
14668.8
14629.2
14585.8
14538.2
14486.3
14429.7
14368.2
14301.6
14229.6
14151.9
14068.2
13978.4
13882.3
13779.5
13670
13553.6
13430
13299.3
13161.2
13015.8
12863.1
12702.9
12535.4
12360.7
12178.8
11990
11794.3
11592.1
11383.7
11169.3
10949.4
10724.2
10494.2
10260
10021.9
9780.5
9536.35
9290.01
9042.05
8793.07
8543.67
8294.48
8046.1
7799.14
7554.22
7311.92
7072.84
6837.53
6606.54
6380.4
6159.58
5944.56
5735.77
5533.6
5338.41
5150.52
4970.23
4797.76