<?xml version="1.0"?>
<VTKFile type="ImageData" version="0.1" byte_order="LittleEndian">
  <ImageData Origin="0 0 0" Spacing="1e-05 1e-05 1e-05" WholeExtent="0 191 0 191 0 0">
    <Piece Extent="0 191 0 191 0 0">
      <CellData Scalars="T">
        <DataArray type="Float32" Name="T" format="ascii" NumberOfComponents="1">
371.294
15000
14985.9
14962.2
14925
14870.1
14792.3
14686.3
14546.6
14367.8
14145.1
13874.6
13553.6
13181
12757.1
12284.1
11766
11208.3
10617.6
10001.9
9369.92
8730.62
8093.17
7466.46
6858.87
6277.94
5730.21
5221.02
4754.47
4333.33
3959.11
3632.1
3351.54
3115.74
2922.25
2768.02
2649.55
2563.03
2504.48
2469.81
2455.01
2456.21
2469.77
2492.44
2521.41
2554.36
2589.56
2625.82
2662.46
2699.33
2736.64
2774.94
2815
2857.72
2904.05
2954.91
3011.06
3073.1
3141.32
3215.68
3295.72
3380.63
3469.22
3560
3651.4
3741.88
3830.18
3915.52
3997.8
4077.65
4156.43
4236.06
4318.7
4406.33
4500.29
4600.86
4706.97
4816.1
4924.57
5027.97
5121.82
5202.32
5266.97
5315.03
5347.59
5367.37
5378.18
5384.23
5389.33
5396.22
5406.08
5418.4
5431.12
5441.12
5444.89
5439.34
5422.42
5393.66
5354.33
5307.3
5256.61
5206.87
5162.53
5127.29
5103.59
5092.37
5092.94
5103.2
5119.89
5138.96
5155.99
5166.62
5166.88
5153.47
5124.05
5077.31
5013.03
4932.09
4836.35
4728.48
4611.76
4489.86
4366.59
4245.64
4130.41
4023.79
3928.05
3844.79
3774.86
3718.46
3675.14
3643.93
3623.49
3612.21
3608.37
3610.29
3616.4
3625.41
3636.32
3648.52
3661.78
3676.27
3692.48
3711.19
3733.36
3760
3792.05
3830.27
3875.06
3926.38
3983.67
4045.76
4110.97
4177.09
4241.52
4301.48
4354.14
4396.88
4427.5
4444.4
4446.72
4434.47
4408.51
4370.52
4322.88
4268.46
4210.44
4152.03
4096.23
4045.61
4002.15
3967.1
3940.92
3923.33
3913.38
3909.59
3910.12
3912.98
3916.12
3917.65
3915.78
3908.84
3894.94
3871.4
3833.68
3773.14
3673.05
3500.69
3192.09
2621.6
1539.29
310.914
433.367
15000
14986
14962.2
14925.1
14870.2
14792.5
14686.6
14547
14368.3
14145.6
13875.1
13554.1
13181.2
12757
12283.7
11765
11206.6
10615.2
9998.76
9365.92
8725.8
8087.57
7460.16
6851.95
6270.51
5722.37
5212.89
4746.13
4324.86
3950.55
3623.49
3342.89
3107.04
2913.48
2759.16
2640.58
2553.94
2495.26
2460.49
2445.64
2446.85
2460.53
2483.41
2512.7
2546.07
2581.77
2618.56
2655.77
2693.16
2730.94
2769.61
2809.92
2852.76
2899.06
2949.75
3005.6
3067.23
3134.96
3208.76
3288.23
3372.59
3460.67
3551.05
3642.15
3732.45
3820.72
3906.15
3988.62
4068.72
4147.78
4227.67
4310.51
4398.29
4492.34
4592.98
4699.17
4808.48
4917.29
5021.22
5115.82
5197.27
5263.04
5312.28
5346.01
5366.85
5378.55
5385.25
5390.74
5397.79
5407.63
5419.79
5432.28
5442.05
5445.64
5439.98
5423.03
5394.31
5355.05
5308.09
5257.44
5207.65
5163.19
5127.72
5103.71
5092.1
5092.22
5102.02
5118.25
5136.88
5153.53
5163.84
5163.86
5150.3
5120.81
5074.08
5009.89
4929.11
4833.58
4725.95
4609.49
4487.87
4364.85
4244.14
4129.1
4022.63
3926.98
3843.76
3773.81
3717.33
3673.89
3642.53
3621.92
3610.46
3606.45
3608.23
3614.24
3623.19
3634.12
3646.4
3659.83
3674.55
3691.07
3710.15
3732.72
3759.79
3792.27
3830.88
3876.01
3927.58
3985
4047.1
4112.17
4177.99
4242
4301.41
4353.42
4395.45
4425.33
4441.51
4443.17
4430.36
4403.96
4365.69
4317.91
4263.52
4205.66
4147.51
4092.05
4041.82
3998.74
3964.02
3938.1
3920.68
3910.81
3907.03
3907.52
3910.32
3913.44
3915
3913.28
3906.58
3893
3869.84
3832.5
3772.36
3672.74
3501.29
3195.36
2633.5
1578.83
302.41
432.944
15000
14986
14962.4
14925.4
14870.6
14793.1
14687.4
14548
14369.5
14147
13876.6
13555.5
13182.4
12757.8
12283.7
11764.1
11204.5
10611.8
9993.82
9359.39
8717.67
8077.89
7449.04
6839.56
6257.02
5707.99
5197.8
4730.52
4308.86
3934.28
3607.02
3326.25
3090.23
2896.47
2741.92
2623.06
2536.13
2477.17
2442.17
2427.18
2428.39
2442.25
2465.52
2495.4
2529.55
2566.18
2604.01
2642.28
2680.7
2719.39
2758.79
2799.61
2842.69
2888.96
2939.33
2994.62
3055.46
3122.22
3194.95
3273.31
3356.58
3443.67
3533.23
3623.72
3713.68
3801.85
3887.43
3970.25
4050.84
4130.43
4210.82
4294.08
4382.14
4476.38
4577.15
4683.53
4793.2
4902.66
5007.62
5103.68
5186.99
5254.91
5306.47
5342.49
5365.41
5378.83
5386.8
5393.08
5400.46
5410.25
5422.12
5434.19
5443.53
5446.79
5440.93
5423.95
5395.31
5356.21
5309.4
5258.81
5208.95
5164.23
5128.32
5103.67
5091.27
5090.51
5099.37
5114.66
5132.42
5148.3
5157.98
5157.51
5143.64
5114.01
5067.3
5003.28
4922.81
4827.68
4720.54
4604.61
4483.53
4361.04
4240.8
4126.16
4019.98
3924.54
3841.39
3771.42
3714.8
3671.14
3639.49
3618.54
3606.74
3602.41
3603.91
3609.72
3618.58
3629.53
3641.98
3655.73
3670.91
3688.02
3707.81
3731.18
3759.07
3792.38
3831.76
3877.53
3929.57
3987.24
4049.33
4114.1
4179.35
4242.5
4300.81
4351.54
4392.16
4420.59
4435.36
4435.73
4421.83
4394.6
4355.78
4307.77
4253.44
4195.91
4138.32
4083.56
4034.08
3991.75
3957.69
3932.3
3915.23
3905.52
3901.75
3902.15
3904.81
3907.85
3909.45
3907.93
3901.6
3888.55
3866.02
3829.32
3769.76
3670.74
3500.14
3195.73
2636.45
1588.58
302.341
432.229
15000
14986.1
14962.6
14925.8
14871.3
14794.2
14688.9
14550
14372
14149.9
13879.9
13558.9
13185.8
12760.7
12286
11765.3
11204.3
10609.7
9989.69
9353.03
8708.98
8066.9
7435.85
6824.34
6240.01
5689.43
5177.96
4709.64
4287.16
3911.93
3584.13
3302.89
3066.43
2872.22
2717.18
2597.81
2510.34
2450.87
2415.45
2400.17
2401.3
2415.33
2439.07
2469.72
2504.93
2542.84
2582.11
2621.88
2661.75
2701.75
2742.22
2783.79
2827.25
2873.51
2923.47
2977.98
3037.71
3103.12
3174.31
3251.06
3332.75
3418.4
3506.73
3596.32
3685.72
3773.71
3859.46
3942.74
4023.98
4104.32
4185.42
4269.28
4357.78
4452.31
4553.3
4659.96
4770.16
4880.55
4987
5085.15
5171.11
5242.12
5297
5336.3
5362.23
5378.15
5387.98
5395.43
5403.32
5413.09
5424.57
5436.07
5444.84
5447.66
5441.57
5424.57
5396.1
5357.26
5310.69
5260.22
5210.26
5165.15
5128.56
5102.96
5089.37
5087.27
5094.71
5108.6
5125.04
5139.75
5148.46
5147.26
5132.91
5103.05
5056.36
4992.59
4912.56
4818.04
4711.61
4596.48
4476.2
4354.5
4234.98
4120.95
4015.25
3920.12
3837.13
3767.14
3710.37
3666.4
3634.36
3612.95
3600.67
3595.88
3596.98
3602.51
3611.23
3622.22
3634.92
3649.11
3664.96
3682.94
3703.74
3728.24
3757.33
3791.81
3832.27
3878.94
3931.62
3989.6
4051.63
4115.93
4180.28
4242.15
4298.83
4347.66
4386.22
4412.54
4425.27
4423.8
4408.34
4379.93
4340.37
4292.07
4237.9
4180.91
4124.16
4070.46
4022.13
3980.93
3947.86
3923.24
3906.69
3897.24
3893.47
3893.71
3896.14
3898.98
3900.51
3899.12
3893.14
3880.62
3858.71
3822.63
3763.62
3665.07
3494.96
3191.28
2633.97
1593.64
302.252
431.399
15000
14986.2
14962.9
14926.5
14872.4
14795.9
14691.3
14553.2
14376.1
14155
13885.8
13565.5
13192.8
12767.7
12292.5
11770.9
11208.4
10612
9989.58
9350.22
8703.27
8058.18
7424.15
6809.78
6222.81
5669.86
5156.32
4686.21
4262.23
3885.72
3556.82
3274.61
3037.24
2842.15
2686.22
2565.97
2477.63
2417.34
2381.21
2365.41
2366.28
2380.38
2404.55
2436.02
2472.41
2511.83
2552.81
2594.4
2636.07
2677.71
2719.55
2762.11
2806.12
2852.44
2901.96
2955.56
3013.96
3077.69
3146.97
3221.69
3301.36
3385.14
3471.87
3560.23
3648.84
3736.51
3822.39
3906.18
3988.19
4069.42
4151.41
4236.02
4325.09
4420.01
4521.31
4628.36
4739.25
4850.83
4959.13
5059.88
5149.15
5224.03
5283.07
5326.51
5356.24
5375.36
5387.58
5396.57
5405.18
5415
5426.05
5436.92
5445.05
5447.39
5441.08
5424.14
5395.95
5357.5
5311.27
5260.97
5210.88
5165.27
5127.76
5100.88
5085.7
5081.8
5087.34
5099.35
5114.02
5127.16
5134.56
5132.37
5117.36
5087.18
5040.49
4977.03
4897.57
4803.83
4698.35
4584.26
4465.07
4344.42
4225.86
4112.67
4007.64
3912.98
3830.24
3760.3
3703.36
3659.07
3626.56
3604.6
3591.73
3586.37
3586.99
3592.17
3600.72
3611.77
3624.78
3639.55
3656.23
3675.29
3697.37
3723.29
3753.86
3789.79
3831.57
3879.32
3932.74
3991.04
4052.9
4116.51
4179.64
4239.79
4294.32
4340.69
4376.59
4400.22
4410.36
4406.57
4389.18
4359.35
4318.93
4270.36
4216.47
4160.27
4104.7
4052.42
4005.63
3965.92
3934.17
3910.6
3894.74
3885.62
3881.87
3881.87
3883.94
3886.39
3887.63
3886.12
3880.23
3867.95
3846.38
3810.62
3751.85
3653.45
3483.53
3180.42
2624.8
1587.21
302.161
430.085
15000
14986.4
14963.4
14927.4
14874.1
14798.3
14694.9
14558.1
14382.4
14162.9
13895.2
13576.3
13204.7
12780.4
12305.4
11783.4
11219.8
10621.5
9996.75
9354.48
8704.19
8055.49
7417.73
6799.65
6209.1
5652.8
5136.19
4663.33
4236.91
3858.25
3527.44
3243.51
3004.56
2807.97
2650.62
2528.97
2439.3
2377.77
2340.55
2323.9
2324.22
2338.15
2362.6
2394.8
2432.37
2473.33
2516.16
2559.76
2603.46
2646.99
2690.45
2734.24
2778.98
2825.47
2874.6
2927.24
2984.18
3046.02
3113.1
3185.46
3262.75
3344.28
3429.05
3515.85
3603.41
3690.58
3776.48
3860.73
3943.54
4025.75
4108.73
4194.23
4283.98
4379.4
4481.11
4588.66
4700.36
4813.33
4923.77
5027.51
5120.59
5199.93
5263.78
5312.05
5346.24
5369.14
5384.25
5395.12
5404.68
5414.67
5425.36
5435.6
5443.09
5444.99
5438.55
5421.8
5394.05
5356.13
5310.38
5260.31
5210.06
5163.81
5125.17
5096.67
5079.5
5073.34
5076.5
5086.14
5098.58
5109.74
5115.5
5112.04
5096.18
5065.57
5018.86
4955.76
4876.98
4784.2
4679.88
4567.08
4449.23
4329.9
4212.58
4100.47
3996.32
3902.3
3819.95
3750.13
3693.09
3648.48
3615.48
3592.92
3579.4
3573.42
3573.49
3578.27
3586.64
3597.77
3611.13
3626.57
3644.24
3664.54
3688.11
3715.66
3747.92
3785.5
3828.74
3877.66
3931.85
3990.41
4051.93
4114.59
4176.14
4234.14
4286.05
4329.42
4362.14
4382.56
4389.67
4383.19
4363.61
4332.21
4290.9
4242.15
4188.75
4133.62
4079.57
4029.1
3984.24
3946.4
3916.3
3894.03
3879.06
3870.39
3866.66
3866.35
3867.88
3869.69
3870.31
3868.26
3861.95
3849.37
3827.54
3791.52
3732.43
3633.74
3463.77
3161.25
2606.81
1563.26
302.078
429.021
15000
14986.6
14964.1
14928.7
14876.2
14801.6
14699.7
14564.7
14391.1
14173.8
13908.5
13591.9
13222.3
12799.7
12325.8
11804.2
11240.2
10640.7
10013.9
9368.74
8714.93
8062.21
7420.09
6797.48
6202.38
5641.67
5120.87
4644.12
4214.13
3832.23
3498.48
3211.88
2970.48
2771.62
2612.11
2488.43
2396.84
2333.54
2294.76
2276.81
2276.19
2289.61
2314.02
2346.71
2385.27
2427.69
2472.33
2517.98
2563.82
2609.41
2654.68
2699.9
2745.56
2792.4
2841.25
2892.98
2948.43
3008.28
3072.99
3142.74
3217.35
3296.31
3378.79
3463.73
3549.95
3636.37
3722.1
3806.71
3890.27
3973.46
4057.48
4143.93
4234.46
4330.47
4432.68
4540.82
4653.45
4767.93
4880.69
4987.66
5084.88
5169.08
5238.23
5291.83
5331
5358.17
5376.59
5389.7
5400.48
5410.82
5421.28
5430.99
5437.96
5439.53
5433.11
5416.72
5389.59
5352.38
5307.24
5257.46
5207.02
5160.02
5120.01
5089.58
5070.02
5061.15
5061.45
5068.24
5078.01
5086.79
5090.55
5085.55
5068.65
5037.49
4990.73
4928.02
4850.02
4758.36
4655.4
4544.12
4427.87
4310.13
4194.31
4083.53
3980.49
3887.32
3805.52
3735.97
3678.91
3634.04
3600.58
3577.43
3563.24
3556.6
3556.1
3560.47
3568.65
3579.87
3593.64
3609.83
3628.57
3650.24
3675.42
3704.75
3738.83
3778.14
3822.91
3873.01
3927.9
3986.56
4047.54
4108.93
4168.55
4223.98
4272.79
4312.71
4341.79
4358.6
4362.33
4352.9
4330.98
4297.96
4255.83
4207.07
4154.41
4100.67
4048.51
4000.25
3957.71
3922.1
3893.99
3873.31
3859.44
3851.34
3847.7
3847.02
3847.84
3848.71
3848.26
3845.1
3837.68
3824.01
3801.09
3763.98
3703.86
3604.35
3434.1
3132.28
2579.34
1537.49
302.035
428.295
15000
14986.9
14964.9
14930.2
14878.8
14805.7
14705.6
14572.8
14401.9
14187.6
13925.5
13612.2
13245.8
12826
12354.3
11834.2
11270.8
10670.8
10042.5
9394.86
8737.64
8080.73
7433.82
6806.02
6205.52
5639.36
5113.24
4631.38
4196.59
3810.23
3472.38
3182
2937.12
2735.04
2572.54
2446.06
2351.87
2286.17
2245.24
2225.46
2223.4
2235.83
2259.78
2292.57
2331.8
2375.4
2421.68
2469.27
2517.22
2564.92
2612.14
2658.95
2705.74
2753.12
2801.86
2852.82
2906.85
2964.72
3026.99
3093.99
3165.72
3241.86
3321.75
3404.5
3489.09
3574.47
3659.79
3744.56
3828.73
3912.82
3997.86
4085.28
4176.64
4273.31
4376.09
4484.89
4598.5
4714.55
4829.71
4940.03
5041.55
5130.83
5205.56
5264.85
5309.38
5341.21
5363.32
5379.03
5391.32
5402.29
5412.73
5422.11
5428.73
5430.18
5423.98
5408.16
5381.86
5345.56
5301.16
5251.74
5201.1
5153.21
5111.62
5078.95
5056.61
5044.61
5041.6
5045.09
5051.74
5057.75
5059.18
5052.38
5034.24
5002.43
4955.56
4893.26
4816.15
4725.73
4624.33
4514.8
4400.4
4284.51
4170.44
4061.26
3959.57
3867.46
3786.42
3717.29
3660.36
3615.32
3581.48
3557.78
3542.96
3535.67
3534.61
3538.57
3546.57
3557.9
3572.12
3589.1
3608.97
3632.09
3658.95
3690.1
3726.04
3767.1
3813.37
3864.55
3919.99
3978.55
4038.69
4098.5
4155.79
4208.24
4253.54
4289.6
4314.67
4327.56
4327.68
4315.16
4290.85
4256.26
4213.46
4164.91
4113.29
4061.29
4011.4
3965.74
3925.91
3892.91
3867.12
3848.33
3835.82
3828.49
3825.01
3823.95
3823.9
3823.52
3821.51
3816.57
3807.22
3791.52
3766.53
3727.38
3665.43
3564.55
3393.89
3093.51
2546.94
1534.14
302.019
427.841
15000
14987.3
14965.7
14931.9
14881.7
14810.2
14712.2
14582.2
14414.4
14203.8
13945.6
13636.5
13274.3
12858.4
12390.1
11872.7
11311
10711.6
10082.7
9433.26
8773.06
8112.12
7460.29
6826.9
6220.35
5647.89
5115.41
4627.31
4186.5
3794.44
3451.25
3155.92
2906.46
2700.14
2533.71
2403.58
2306.01
2237.21
2193.47
2171.24
2167.14
2178.02
2200.97
2233.35
2272.78
2317.17
2364.74
2414.04
2463.96
2513.72
2562.91
2611.45
2659.55
2707.68
2756.54
2806.93
2859.7
2915.69
2975.55
3039.76
3108.49
3181.61
3258.66
3338.95
3421.57
3505.6
3590.22
3674.88
3759.44
3844.27
3930.24
4018.59
4110.77
4208.12
4311.5
4420.97
4535.57
4653.19
4770.72
4884.38
4990.21
5084.64
5165.08
5230.25
5280.4
5317.21
5343.37
5362.03
5376.19
5388.1
5398.84
5408.17
5414.71
5416.29
5410.56
5395.56
5370.31
5335.1
5291.58
5242.58
5191.73
5142.85
5099.47
5064.28
5038.82
5023.28
5016.54
5016.31
5019.46
5022.33
5021.13
5012.27
4992.71
4960.13
4913.12
4851.26
4775.09
4686.07
4586.39
4478.82
4366.49
4252.7
4140.65
4033.31
3933.21
3842.41
3762.33
3693.83
3637.17
3592.12
3558
3533.84
3518.46
3510.58
3508.99
3512.58
3520.44
3531.9
3546.59
3564.39
3585.42
3610
3638.55
3671.52
3709.28
3752.01
3799.64
3851.74
3907.49
3965.67
4024.66
4082.52
4137.1
4186.18
4227.6
4259.46
4280.24
4288.99
4285.36
4269.72
4243.07
4207.05
4163.79
4115.73
4065.47
4015.57
3968.32
3925.64
3888.89
3858.87
3835.76
3819.18
3808.31
3801.97
3798.8
3797.4
3796.37
3794.43
3790.37
3782.97
3770.84
3752.13
3724.05
3681.93
3617.36
3514.64
3343.58
3045.6
2507.21
1511.76
301.997
427.877
15000
14987.6
14966.6
14933.7
14884.7
14814.9
14719.2
14592
14427.7
14221.1
13967.4
13663.2
13305.9
12894.9
12431.2
11917.6
11358.9
10761.4
10133
9482.73
8820.32
8155.88
7499.4
6860.38
6247.47
5668.15
5128.54
4633.24
4185.35
3786.46
3436.79
3135.36
2880.21
2668.6
2497.27
2362.6
2260.83
2188.16
2140.92
2115.56
2108.77
2117.47
2138.8
2170.17
2209.23
2253.88
2302.29
2352.92
2404.54
2456.2
2507.33
2557.64
2607.18
2656.28
2705.5
2755.57
2807.33
2861.62
2919.2
2980.66
3046.36
3116.33
3190.36
3267.91
3348.26
3430.6
3514.17
3598.39
3683.07
3768.41
3855.11
3944.28
4037.22
4135.21
4239.17
4349.29
4464.83
4583.92
4703.71
4820.58
4930.6
5030.11
5116.24
5187.37
5243.32
5285.37
5315.89
5337.88
5354.3
5367.55
5378.96
5388.6
5395.4
5397.42
5392.44
5378.53
5354.56
5320.62
5278.11
5229.61
5178.52
5128.56
5083.23
5045.28
5016.4
4996.99
4986.15
4981.84
4981.13
4980.54
4976.43
4965.31
4944.17
4910.71
4863.52
4802.12
4726.98
4639.46
4541.66
4436.23
4326.2
4214.73
4104.93
3999.67
3901.41
3812.13
3733.24
3665.56
3609.37
3564.47
3530.23
3505.73
3489.88
3481.51
3479.46
3482.73
3490.48
3502.12
3517.3
3535.93
3558.12
3584.13
3614.33
3649.03
3688.49
3732.74
3781.55
3834.32
3890.11
3947.58
4005.06
4060.6
4112.1
4157.46
4194.67
4222.05
4238.34
4242.82
4235.42
4216.68
4187.82
4150.57
4107.1
4059.84
4011.28
3963.82
3919.57
3880.21
3846.9
3820.2
3800.11
3786.07
3777.15
3772.06
3769.4
3767.73
3765.65
3761.92
3755.37
3744.87
3729.16
3706.55
3674.48
3628.54
3560.72
3455.8
3284.46
2989.63
2460.75
1483.66
301.978
428.805
15000
14987.9
14967.4
14935.3
14887.5
14819.4
14725.8
14601.4
14440.6
14238.1
13989.2
13690.1
13338.4
12933
12474.7
11966
11411.5
10817.1
10190.5
9540.6
8877.08
8210.04
7549.57
6905.32
6286.17
5699.84
5152.69
4649.59
4193.84
3787.21
3430.06
3121.52
2859.67
2641.8
2464.64
2324.56
2217.78
2140.49
2089.01
2059.84
2049.68
2055.52
2074.56
2104.25
2142.29
2186.58
2235.28
2286.77
2339.7
2393
2445.92
2497.98
2549.05
2599.29
2649.1
2699.14
2750.16
2803.01
2858.51
2917.36
2980.06
3046.85
3117.7
3192.29
3270.08
3350.39
3432.54
3515.97
3600.4
3685.95
3773.15
3862.93
3956.49
4055.04
4159.49
4270.17
4386.52
4506.93
4628.78
4748.63
4862.62
4967.01
5058.72
5135.78
5197.62
5245.11
5280.31
5306
5325.12
5340.17
5352.7
5363.08
5370.53
5373.35
5369.44
5356.86
5334.39
5301.9
5260.52
5212.58
5161.26
5110.17
5062.75
5021.86
4989.33
4965.78
4950.56
4941.87
4937.02
4932.72
4925.48
4911.91
4889.06
4854.65
4807.25
4746.32
4672.27
4586.36
4490.57
4387.45
4279.89
4170.95
4063.61
3960.65
3864.45
3776.91
3699.41
3632.76
3577.24
3532.66
3498.46
3473.78
3457.6
3448.84
3446.44
3449.46
3457.16
3469.01
3484.7
3504.15
3527.46
3554.86
3586.6
3622.92
3663.92
3709.48
3759.2
3812.36
3867.86
3924.27
3979.87
4032.72
4080.8
4122.11
4154.85
4177.56
4189.22
4189.4
4178.24
4156.54
4125.65
4087.41
4044.01
3997.84
3951.29
3906.58
3865.64
3829.92
3800.34
3777.26
3760.49
3749.31
3742.62
3739.05
3737.09
3735.25
3732.1
3726.38
3716.98
3702.86
3682.92
3655.7
3618.93
3568.57
3497.05
3389.79
3218.37
2927.38
2409.5
1459.79
301.972
429.249
15000
14988.2
14968.1
14936.6
14889.8
14823.1
14731.4
14609.5
14451.8
14253.1
14008.7
13714.8
13368.7
12969.3
12516.9
12014
11464.6
10874.5
10251.1
9603.01
8939.74
8271.34
7607.95
6959.34
6334.54
5741.51
5186.89
4675.79
4211.77
3796.83
3431.51
3115.08
2845.7
2620.74
2436.93
2290.65
2178.1
2095.47
2039.07
2005.4
1991.21
1993.51
2009.57
2036.9
2073.22
2116.49
2164.83
2216.6
2270.37
2324.94
2379.4
2433.1
2485.72
2537.21
2587.84
2638.1
2688.69
2740.4
2794.09
2850.53
2910.35
2973.98
3041.58
3113.04
3188
3265.95
3346.3
3428.52
3512.32
3597.71
3685.09
3775.24
3869.21
3968.13
4072.93
4184.01
4300.98
4422.48
4546.12
4668.64
4786.29
4895.29
4992.36
5075.25
5143.01
5196.11
5236.27
5266.07
5288.37
5305.72
5319.87
5331.48
5340.01
5344.01
5341.49
5330.52
5309.77
5278.89
5238.76
5191.45
5139.93
5087.68
5038.12
4994.17
4957.85
4929.98
4910.17
4896.9
4887.7
4879.5
4868.96
4852.8
4828.15
4792.73
4745.1
4684.67
4611.77
4527.56
4433.9
4333.22
4228.29
4122.03
4017.33
3916.85
3822.89
3737.29
3661.38
3595.95
3541.28
3497.21
3463.22
3438.52
3422.16
3413.14
3410.49
3413.36
3421.08
3433.18
3449.4
3469.66
3494.04
3522.73
3555.9
3593.67
3635.99
3682.61
3732.97
3786.18
3841.04
3896.03
3949.39
3999.21
4043.54
4080.54
4108.61
4126.51
4133.5
4129.39
4114.59
4090.09
4057.38
4018.41
3975.36
3930.56
3886.29
3844.61
3807.21
3775.35
3749.74
3730.51
3717.28
3709.18
3704.95
3703.1
3701.99
3700.05
3695.79
3687.94
3675.41
3657.3
3632.68
3600.38
3558.49
3503.39
3428.05
3318.52
3147.37
2860.96
2355.38
1431.57
301.968
429.036
15000
14988.3
14968.5
14937.5
14891.3
14825.6
14735.3
14615.3
14460.1
14264.6
14024.1
13734.8
13394
13000.4
12554.2
12057.5
11514
10929.3
10310.3
9665.41
9003.89
8335.66
7670.78
7019.07
6389.68
5790.78
5229.23
4710.42
4238.18
3814.76
3440.93
3116.13
2838.67
2606
2414.89
2261.76
2142.8
2054.2
1992.25
1953.47
1934.61
1932.74
1945.16
1969.43
2003.34
2044.87
2092.19
2143.61
2197.65
2253.03
2308.68
2363.8
2417.87
2470.67
2522.27
2573
2623.45
2674.34
2726.52
2780.8
2837.94
2898.5
2962.84
3031.05
3102.97
3178.25
3256.43
3337.05
3419.79
3504.61
3591.79
3681.97
3776.08
3875.14
3980.06
4091.32
4208.68
4330.98
4456.06
4580.88
4701.81
4815.06
4917.23
5005.78
5079.43
5138.27
5183.68
5217.99
5243.95
5264.14
5280.48
5293.83
5303.92
5309.49
5308.69
5299.61
5280.78
5251.68
5212.92
5166.33
5114.67
5061.29
5009.59
4962.56
4922.38
4890.12
4865.63
4847.65
4833.98
4821.76
4807.81
4788.99
4762.47
4726.01
4678.15
4618.24
4546.54
4464.09
4372.65
4274.51
4172.32
4068.87
3966.94
3869.09
3777.52
3694.01
3619.85
3555.8
3502.16
3458.77
3425.17
3400.61
3384.23
3375.09
3372.32
3375.14
3382.96
3395.35
3412.1
3433.15
3458.55
3488.42
3522.87
3561.89
3605.31
3652.71
3703.39
3756.33
3810.2
3863.41
3914.19
3960.66
4000.98
4033.47
4056.72
4069.75
4072.08
4063.78
4045.48
4018.38
3984.1
3944.65
3902.21
3859.04
3817.27
3778.79
3745.11
3717.25
3695.72
3680.45
3670.87
3665.94
3664.26
3664.17
3663.95
3661.88
3656.42
3646.27
3630.42
3608.08
3578.56
3541.01
3493.91
3434.12
3355.12
3243.66
3073.29
2792.1
2299.51
1403.15
301.968
428.139
15000
14988.4
14968.7
14937.8
14891.9
14826.6
14737
14618.1
14464.5
14271.2
14033.6
13748
13411.8
13023.4
12583.1
12092.6
11555.5
10976.9
10363.4
9723.11
9064.92
8398.51
7733.83
7080.62
6448.11
5844.59
5277.12
4751.37
4271.42
3839.8
3457.52
3124.25
2838.46
2597.72
2398.91
2238.47
2112.62
2017.54
1949.53
1905.1
1881.04
1874.4
1882.57
1903.14
1933.96
1973.06
2018.64
2069.03
2122.72
2178.35
2234.76
2290.98
2346.33
2400.38
2453.02
2504.42
2554.98
2605.37
2656.36
2708.79
2763.48
2821.15
2882.29
2947.19
3015.91
3088.26
3163.92
3242.52
3323.78
3407.59
3494.16
3583.99
3677.89
3776.79
3881.56
3992.72
4110.16
4232.92
4359.06
4485.77
4609.54
4726.64
4833.57
4927.58
5007.05
5071.72
5122.63
5161.85
5191.96
5215.56
5234.65
5250.28
5262.41
5269.98
5271.25
5264.31
5247.62
5220.45
5183.21
5137.46
5085.77
5031.35
4977.6
4927.56
4883.57
4846.92
4817.74
4795.04
4776.86
4760.57
4743.17
4721.64
4693.22
4655.72
4607.63
4548.26
4477.79
4397.15
4307.98
4212.45
4113.07
4012.52
3913.45
3818.31
3729.24
3647.94
3575.65
3513.13
3460.65
3418.1
3385.04
3360.78
3344.52
3335.41
3332.64
3335.52
3343.51
3356.25
3373.55
3395.35
3421.7
3452.64
3488.21
3528.28
3572.54
3620.45
3671.13
3723.46
3776
3827.11
3875
3917.87
3953.96
3981.78
4000.14
4008.31
4006.05
3993.69
3972.1
3942.63
3907.03
3867.34
3825.74
3784.39
3745.29
3710.13
3680.23
3656.4
3638.93
3627.58
3621.58
3619.73
3620.47
3622.01
3622.49
3620.1
3613.24
3600.61
3581.28
3554.62
3520.2
3477.53
3425.48
3361.38
3279.24
3166.45
2997.51
2722.25
2243.64
1374.83
301.969
426.718
15000
14988.3
14968.5
14937.4
14891.3
14825.9
14736.3
14617.5
14464.4
14272.1
14036.2
13753.1
13420.2
13036.1
12601
12116.4
11585.7
11013.6
10406.5
9771.93
9118.51
8455.61
7792.9
7140.02
6506.13
5899.59
5327.64
4796.13
4309.41
3870.29
3480.04
3138.56
2844.54
2595.69
2389.02
2221.03
2087.99
1986.1
1911.66
1861.18
1831.46
1819.58
1822.95
1839.24
1866.34
1902.34
1945.49
1994.16
2046.83
2102.1
2158.73
2215.63
2271.96
2327.12
2380.78
2432.94
2483.84
2534
2584.12
2635.02
2687.56
2742.54
2800.61
2862.23
2927.65
2996.86
3069.7
3145.91
3225.24
3307.61
3393.12
3482.19
3575.49
3673.88
3778.17
3888.91
4006.09
4128.93
4255.72
4383.85
4510.01
4630.52
4741.83
4841.03
4926.2
4996.76
5053.4
5097.89
5132.65
5160.2
5182.61
5201.08
5215.75
5225.73
5229.41
5224.89
5210.55
5185.51
5149.95
5105.2
5053.65
4998.37
4942.72
4889.83
4842.17
4801.26
4767.48
4740.11
4717.46
4697.11
4676.26
4652.02
4621.7
4583.15
4534.83
4476.02
4406.79
4327.99
4241.12
4148.23
4051.69
3954.07
3857.89
3765.52
3678.99
3599.97
3529.64
3468.74
3417.54
3375.96
3343.57
3319.76
3303.76
3294.81
3292.16
3295.2
3303.44
3316.57
3334.42
3356.95
3384.16
3416.05
3452.57
3493.48
3538.34
3586.46
3636.85
3688.25
3739.15
3787.87
3832.62
3871.66
3903.38
3926.46
3939.92
3943.28
3936.57
3920.34
3895.68
3864.09
3827.42
3787.74
3747.19
3707.81
3671.47
3639.67
3613.52
3593.63
3580.07
3572.41
3569.71
3570.61
3573.4
3576.16
3576.93
3573.82
3565.22
3549.86
3526.91
3495.96
3456.87
3409.46
3353.04
3285.34
3200.87
3087.59
2920.9
2652.2
2187.4
1347
301.97
425.284
15000
14988.1
14967.9
14936.4
14889.7
14823.5
14733.1
14613.5
14459.8
14267.2
14031.6
13749.5
13418.6
13037.6
12606.6
12127.2
11602.5
11037
10436.7
9808.68
9161.26
8503.38
7844.38
7193.66
6560.27
5952.55
5377.8
4842.05
4349.87
3904.32
3506.93
3157.87
2856.04
2599.35
2384.94
2209.42
2069.11
1960.25
1879.16
1822.37
1786.67
1769.18
1767.33
1778.83
1801.65
1833.93
1874
1920.26
1971.21
2025.46
2081.7
2138.77
2195.68
2251.67
2306.24
2359.17
2410.54
2460.7
2510.25
2559.95
2610.65
2663.21
2718.4
2776.84
2838.93
2904.86
2974.63
3048.11
3125.13
3205.6
3289.61
3377.48
3469.79
3567.28
3670.73
3780.69
3897.24
4019.77
4146.77
4275.86
4403.91
4527.36
4642.65
4746.73
4837.45
4913.89
4976.43
5026.52
5066.37
5098.4
5124.68
5146.52
5164.22
5177.04
5183.47
5181.66
5169.92
5147.22
5113.54
5070.01
5018.82
4962.93
4905.64
4850.14
4799.04
4754.06
4715.85
4683.94
4656.91
4632.58
4608.32
4581.38
4549.18
4509.58
4461.04
4402.78
4334.79
4257.81
4173.24
4082.97
3989.27
3894.57
3801.28
3711.67
3627.7
3550.98
3482.65
3423.42
3373.59
3333.05
3301.45
3278.19
3262.58
3253.9
3251.48
3254.77
3263.32
3276.88
3295.29
3318.5
3346.49
3379.22
3416.51
3458.05
3503.27
3551.34
3601.15
3651.34
3700.32
3746.39
3787.79
3822.86
3850.12
3868.43
3877.06
3875.74
3864.76
3844.9
3817.42
3783.98
3746.5
3707.05
3667.72
3630.45
3596.92
3568.46
3545.94
3529.77
3519.81
3515.45
3515.56
3518.63
3522.82
3526.14
3526.54
3522.11
3511.27
3492.86
3466.2
3431.1
3387.72
3336.22
3276.26
3205.95
3120.19
3007.44
2843.9
2582.51
2132.32
1318.78
301.967
422.991
15000
14987.8
14967.1
14934.9
14887.2
14819.7
14727.7
14606.5
14451.1
14257
14020.4
13737.9
13407.5
13028.2
12600
12124.8
11605.3
11046
10452.5
9831.6
9191.04
8539.38
7885.58
7238.74
6607.68
6000.64
5424.92
4886.64
4390.55
3939.92
3536.55
3180.84
2871.93
2607.95
2386.18
2203.36
2055.91
1940.13
1852.35
1789.13
1747.28
1723.92
1716.53
1722.85
1740.92
1768.94
1805.31
1848.49
1897.04
1949.58
2004.78
2061.42
2118.42
2174.87
2230.09
2283.7
2335.57
2385.9
2435.13
2483.94
2533.13
2583.58
2636.14
2691.55
2750.37
2812.97
2879.5
2949.98
3024.33
3102.5
3184.57
3270.8
3361.69
3457.89
3560.12
3668.93
3784.48
3906.28
4033.05
4162.62
4292.07
4417.98
4536.82
4645.44
4741.5
4823.78
4892.32
4948.28
4993.61
5030.58
5061.24
5086.96
5108.15
5124.22
5133.76
5134.96
5126.08
5105.97
5074.43
5032.39
4981.86
4925.67
4867.06
4809.27
4755.04
4706.27
4663.85
4627.6
4596.33
4568.11
4540.51
4510.91
4476.84
4436.18
4387.4
4329.67
4262.89
4187.71
4105.38
4017.7
3926.78
3834.94
3744.49
3657.6
3576.17
3501.73
3435.39
3377.86
3329.42
3290
3259.24
3236.62
3221.49
3213.18
3211.08
3214.68
3223.6
3237.61
3256.57
3280.42
3309.12
3342.54
3380.45
3422.42
3467.76
3515.53
3564.49
3613.21
3660.04
3703.26
3741.16
3772.16
3794.94
3808.53
3812.43
3806.62
3791.6
3768.38
3738.37
3703.37
3665.34
3626.36
3588.43
3553.36
3522.66
3497.45
3478.39
3465.63
3458.85
3457.21
3459.45
3463.9
3468.64
3471.61
3470.77
3464.26
3450.59
3428.76
3398.31
3359.31
3312.19
3257.42
3194.94
3123.18
3037.31
2926.23
2766.82
2513.39
2077.57
1290.34
301.961
421.493
15000
14987.4
14966.1
14933
14884
14814.8
14720.9
14597.3
14439.4
14242.8
14004
13719.9
13388.6
13009.5
12582.9
12110.5
11595.3
11041.5
10454.4
9840.57
9207.25
8562.59
7915.11
7273.55
6646.43
6041.8
5466.9
4927.85
4429.51
3975.33
3567.32
3206.12
2891.1
2620.59
2392.08
2202.43
2048.18
1925.68
1831.35
1761.73
1713.68
1684.34
1671.2
1672.07
1685.01
1708.31
1740.44
1779.93
1825.41
1875.54
1929.01
1984.58
2041.08
2097.51
2153.05
2207.12
2259.44
2310.01
2359.11
2407.3
2455.29
2503.97
2554.19
2606.8
2662.49
2721.78
2784.99
2852.26
2923.65
2999.17
3078.9
3163.09
3252.14
3346.65
3447.28
3554.56
3668.72
3789.41
3915.52
4045.11
4175.47
4303.35
4425.29
4538.07
4639.21
4727.21
4801.8
4863.8
4914.92
4957.24
4992.73
5022.79
5047.91
5067.62
5080.61
5085.12
5079.39
5062.16
5033.07
4992.86
4943.34
4887.23
4827.7
4768.01
4711
4658.77
4612.43
4572.05
4536.72
4504.73
4473.85
4441.63
4405.68
4363.95
4314.9
4257.64
4192.02
4118.56
4038.41
3953.22
3865
3775.94
3688.25
3604.01
3525.03
3452.82
3388.44
3332.59
3285.54
3247.25
3217.39
3195.46
3180.86
3172.98
3171.26
3175.23
3184.56
3199.03
3218.52
3242.96
3272.26
3306.26
3344.63
3386.82
3432.06
3479.29
3527.17
3574.2
3618.67
3658.89
3693.18
3720.07
3738.4
3747.39
3746.74
3736.66
3717.89
3691.6
3659.4
3623.14
3584.85
3546.57
3510.22
3477.45
3449.59
3427.52
3411.67
3401.97
3397.83
3398.25
3401.78
3406.66
3410.92
3412.51
3409.44
3399.99
3382.87
3357.28
3323.04
3280.47
3230.27
3173.17
3109.31
3037.32
2952.58
2844.28
2689.93
2445.2
2025.1
1270.07
301.95
421.166
15000
14987
14965.1
14930.9
14880.5
14809.5
14713.3
14587
14426.1
14226.4
13984.5
13697.8
13364.6
12984.4
12558
12087.3
11575.1
11025.8
10444.3
9837.06
9210.87
8573.46
7932.94
7297.61
6675.67
6074.92
5502.41
4964.23
4465.28
4009.11
3597.9
3232.5
2912.5
2636.43
2401.95
2206.11
2045.55
1916.72
1816.09
1740.26
1686.1
1650.78
1631.81
1627.04
1634.59
1652.81
1680.24
1715.5
1757.29
1804.34
1855.38
1909.18
1964.54
2020.39
2075.79
2130.03
2182.62
2233.41
2282.49
2330.28
2377.38
2424.6
2472.83
2522.92
2575.69
2631.78
2691.65
2755.62
2823.84
2896.42
2973.47
3055.22
3142.06
3234.5
3333.16
3438.56
3550.97
3670.16
3795.19
3924.36
4055.16
4184.53
4309.09
4425.65
4531.55
4625.09
4705.68
4773.83
4830.96
4878.93
4919.62
4954.4
4983.84
5007.56
5024.35
5032.49
5030.22
5016.19
4989.9
4951.88
4903.8
4848.2
4788.2
4727.04
4667.67
4612.33
4562.37
4518.11
4478.89
4443.25
4409.16
4374.34
4336.51
4293.67
4244.28
4187.42
4122.86
4051.03
3972.95
3890.15
3804.52
3718.13
3633.08
3551.37
3474.77
3404.69
3342.21
3287.98
3242.3
3205.12
3176.15
3154.94
3140.9
3133.49
3132.18
3136.55
3146.29
3161.22
3181.21
3206.17
3235.99
3270.43
3309.08
3351.32
3396.25
3442.71
3489.3
3534.43
3576.39
3613.47
3644.1
3666.9
3680.86
3685.4
3680.42
3666.36
3644.15
3615.15
3581.09
3543.92
3505.68
3468.35
3433.76
3403.4
3378.37
3359.34
3346.45
3339.38
3337.32
3339.04
3342.98
3347.29
3349.99
3349.11
3342.82
3329.63
3308.48
3278.88
3240.92
3195.21
3142.69
3084.24
3020.15
2949.13
2866.68
2762.2
2613.73
2378.14
1972.61
1236.19
301.907
420.389
15000
14986.6
14964.1
14928.9
14877.2
14804.4
14705.9
14576.9
14412.8
14209.8
13964.5
13674.5
13338.6
12956.5
12529.2
12058.8
11548.5
11002.3
10425.5
9823.89
9204.23
8573.8
7940.31
7311.66
6695.68
6099.84
5530.99
4995.09
4497
4040.31
3627.34
3259.06
2935.27
2654.68
2415.15
2213.87
2047.63
1912.97
1806.43
1724.68
1664.6
1623.41
1598.64
1588.17
1590.16
1603.03
1625.39
1655.95
1693.49
1736.83
1784.76
1836.09
1889.64
1944.29
1999.02
2053
2105.6
2156.48
2205.57
2253.11
2299.57
2345.67
2392.23
2440.14
2490.26
2543.34
2599.98
2660.62
2725.55
2794.97
2869.06
2948.07
3032.34
3122.37
3218.71
3321.9
3432.22
3549.55
3673.13
3801.45
3932.24
4062.62
4189.35
4309.25
4419.56
4518.39
4604.84
4679.15
4742.4
4796.25
4842.42
4882.25
4916.33
4944.38
4965.28
4977.37
4978.88
4968.4
4945.27
4909.87
4863.67
4809.05
4749.06
4686.9
4625.59
4567.54
4514.28
4466.39
4423.46
4384.28
4347.04
4309.63
4269.88
4225.86
4176.04
4119.48
4055.87
3985.54
3909.39
3828.85
3745.68
3661.82
3579.29